#
TITLE=""
VARIABLES="X", "Y", "Z", "T", "Hw", "Hi", "HTC", "Beta", "TauX", "TauY", "TauZ"
ZONE T="ZONE 1"
NODES=1716
ELEMENTS=3428
DATAPACKING=BLOCK
ZONETYPE=FETRIANGLE
VARLOCATION=([4-11]=CELLCENTERED)
-1.0000016689300537 -1.0000016689300537 -1.0000016689300537 -1.0000016689300537 -0.8207070231437683 -0.8207070231437683 -0.8207070231437683 -1.0000016689300537 -1.0000016689300537 -1.0000016689300537 -1.0000016689300537 -0.8207070231437683 -0.8207070231437683 -1.0000016689300537 -1.0000016689300537 -1.0000016689300537 -1.0000016689300537 -0.8207070231437683 -0.8207070231437683 -1.0000016689300537 -1.0000016689300537 -1.0000016689300537 -1.0000016689300537 -0.6944444179534912 -0.5681817531585693 -0.5681817531585693 -0.6944444179534912 -0.6944444179534912 -0.5681817531585693 -0.6944444179534912 -0.5681817531585693 -0.5681817531585693 -0.6944444179534912 -0.6944444179534912 -0.6944444179534912 -0.5681817531585693 -0.5681817531585693 -1.0000016689300537 -1.0000016689300537 -1.0000016689300537 -1.0000016689300537 -0.8207070231437683 -0.8207070231437683 -1.0000016689300537 -1.0000016689300537 -1.0000016689300537 -1.0000016689300537 -0.8207070231437683 -0.8207070231437683 -1.0000016689300537 -1.0000016689300537 -1.0000016689300537 -1.0000016689300537 -1.0000016689300537 -1.0000016689300537 -1.0000016689300537 -1.0000016689300537 -0.6944444179534912 -0.5681817531585693 -0.5681817531585693 -0.6944444179534912 -0.6944444179534912 -0.5681817531585693 -0.5681817531585693 -0.6944444179534912 -1.0000016689300537 -1.0000016689300537 -1.0000016689300537 -1.0000016689300537 -0.8207070231437683 -0.8207070231437683 -1.0000016689300537 -1.0000016689300537 -1.0000016689300537 -1.0000016689300537 -1.0000016689300537 -1.0000016689300537 -1.0000016689300537 -1.0000016689300537 -0.8207070231437683 -0.8207070231437683 -1.0000016689300537 -1.0000016689300537 -1.0000016689300537 -1.0000016689300537 -0.6944444179534912 -0.6944444179534912 -0.5681817531585693 -0.5681817531585693 -0.6944444179534912 -0.6944444179534912 -0.5681817531585693 -0.5681817531585693 -1.0000016689300537 -1.0000016689300537 -1.0000016689300537 -1.0000016689300537 -1.0000016689300537 -1.0000016689300537 -1.0000016689300537 -1.0000016689300537 -1.0000016689300537 -1.0000016689300537 -1.0000016689300537 -1.0000016689300537 -1.0000016689300537 -1.0000016689300537 -1.0000016689300537 -1.0000016689300537 -0.44191914796829224 -0.31565654277801514 -0.31565654277801514 -0.44191914796829224 -0.44191914796829224 -0.31565654277801514 -0.44191914796829224 -0.31565654277801514 -0.31565654277801514 -0.44191914796829224 -0.44191914796829224 -0.44191914796829224 -0.31565654277801514 -0.31565654277801514 -0.18939393758773804 -0.06313133239746094 -0.06313133239746094 -0.18939393758773804 -0.18939393758773804 -0.06313133239746094 -0.18939393758773804 -0.06313133239746094 -0.06313133239746094 -0.18939393758773804 -0.18939393758773804 -0.18939393758773804 -0.06313133239746094 -0.06313133239746094 -0.44191914796829224 -0.31565654277801514 -0.31565654277801514 -0.44191914796829224 -0.44191914796829224 -0.31565654277801514 -0.31565654277801514 -0.44191914796829224 -0.18939393758773804 -0.06313133239746094 -0.06313133239746094 -0.18939393758773804 -0.18939393758773804 -0.06313133239746094 -0.06313133239746094 -0.18939393758773804 -0.44191914796829224 -0.44191914796829224 -0.31565654277801514 -0.31565654277801514 -0.44191914796829224 -0.44191914796829224 -0.31565654277801514 -0.31565654277801514 -0.18939393758773804 -0.18939393758773804 -0.06313133239746094 -0.06313133239746094 -0.18939393758773804 -0.18939393758773804 -0.06313133239746094 -0.06313133239746094 -1.0000016689300537 -1.0000016689300537 -1.0000016689300537 -1.0000016689300537 -0.8207070231437683 -0.8207070231437683 -1.0000016689300537 -1.0000016689300537 -1.0000016689300537 -1.0000016689300537 -0.8207070231437683 -0.8207070231437683 -1.0000016689300537 -1.0000016689300537 -1.0000016689300537 -1.0000016689300537 -1.0000016689300537 -1.0000016689300537 -1.0000016689300537 -1.0000016689300537 -0.6944444179534912 -0.5681817531585693 -0.5681817531585693 -0.6944444179534912 -0.6944444179534912 -0.5681817531585693 -0.5681817531585693 -0.6944444179534912 -1.0000016689300537 -1.0000016689300537 -1.0000016689300537 -1.0000016689300537 -0.8207070231437683 -0.8207070231437683 -1.0000016689300537 -1.0000016689300537 -1.0000016689300537 -1.0000016689300537 -0.8207070231437683 -0.8207070231437683 -0.8207070231437683 -1.0000016689300537 -1.0000016689300537 -1.0000016689300537 -1.0000016689300537 -1.0000016689300537 -1.0000016689300537 -1.0000016689300537 -1.0000016689300537 -0.8207070231437683 -0.8207070231437683 -0.6944444179534912 -0.5681817531585693 -0.5307740569114685 -0.6944444179534912 -0.6449695825576782 -0.7500001192092896 -0.7500004768371582 -0.6416622996330261 -0.5924828052520752 -0.5953091382980347 -0.6449695825576782 -0.7500001192092896 -0.7500001192092896 -0.6449695825576782 -0.5953091382980347 -0.5953091382980347 -0.5321778059005737 -0.5321778059005737 -0.5321778059005737 -1.0000016689300537 -1.0000016689300537 -1.0000016689300537 -1.0000016689300537 -1.0000016689300537 -1.0000016689300537 -1.0000016689300537 -1.0000016689300537 -1.0000016689300537 -1.0000016689300537 -1.0000016689300537 -1.0000016689300537 -1.0000016689300537 -1.0000016689300537 -1.0000016689300537 -1.0000016689300537 -1.0000016689300537 -1.0000016689300537 -1.0000016689300537 -1.0000016689300537 -1.0000016689300537 -1.0000016689300537 -1.0000016689300537 -1.0000016689300537 -0.8207070231437683 -0.8207070231437683 -1.0000016689300537 -1.0000016689300537 -1.0000016689300537 -1.0000016689300537 -1.0000016689300537 -1.0000016689300537 -1.0000016689300537 -1.0000016689300537 -0.8207070231437683 -0.8207070231437683 -0.6449695825576782 -0.7500001192092896 -0.7500001192092896 -0.6449695825576782 -0.5953091382980347 -0.5953091382980347 -0.6449695825576782 -0.7500001192092896 -0.7500001192092896 -0.6449695825576782 -0.5953091382980347 -0.5953091382980347 -0.5321778059005737 -0.5321778059005737 -0.5321778059005737 -0.5321778059005737 -0.44191914796829224 -0.31565654277801514 -0.31565654277801514 -0.44191914796829224 -0.44191914796829224 -0.31565654277801514 -0.31565654277801514 -0.44191914796829224 -0.18939393758773804 -0.06313133239746094 -0.06313133239746094 -0.18939393758773804 -0.18939393758773804 -0.06313133239746094 0.0 -0.18939393758773804 -0.44191914796829224 -0.31565654277801514 -0.31565654277801514 -0.5000007748603821 -0.18270611763000488 -0.3004380464553833 -0.25000131130218506 -0.36008161306381226 -0.29695045948028564 -0.29695045948028564 -0.36008161306381226 -0.40974223613739014 -0.40974223613739014 -0.0751880407333374 -0.11350411176681519 -0.11044901609420776 -0.0787840485572815 -0.18939393758773804 -0.1341230869293213 -0.13906168937683105 -0.17741811275482178 -0.2500011920928955 -0.0751880407333374 -0.11350411176681519 -0.11350411176681519 -0.0751880407333374 -0.13906168937683105 -0.13906168937683105 -0.17741811275482178 -0.2500011920928955 -0.2500011920928955 -0.17741811275482178 -0.41217219829559326 -0.29695045948028564 -0.36008161306381226 -0.40974223613739014 -0.5000008344650269 -0.5000008344650269 -0.5000008344650269 -0.36008161306381226 -0.29695045948028564 -0.29695045948028564 -0.36008161306381226 -0.40974223613739014 -0.40974223613739014 -0.36008161306381226 -0.29695045948028564 -0.29695045948028564 -0.36008161306381226 -0.40974223613739014 -0.40974223613739014 -0.0751880407333374 -0.11350411176681519 -0.11350411176681519 -0.0751880407333374 -0.13906168937683105 -0.13906168937683105 -0.17741811275482178 -0.2500011920928955 -0.2500011920928955 -0.17741811275482178 -0.0751880407333374 -0.11350411176681519 -0.11350411176681519 -0.0751880407333374 -0.13906168937683105 -0.13906168937683105 -0.17741811275482178 -0.2500011920928955 -0.2500011920928955 -0.17741811275482178 -0.5000008344650269 -0.5000008344650269 -0.5000008344650269 -0.5000008344650269 0.0 0.0 0.0 0.0 0.0 0.0 0.0 -1.0000016689300537 -1.0000016689300537 -1.0000016689300537 -1.0000016689300537 -0.8207070231437683 -0.8207070231437683 -1.0000016689300537 -1.0000016689300537 -1.0000016689300537 -1.0000016689300537 -1.0000016689300537 -1.0000016689300537 -1.0000016689300537 -1.0000016689300537 -0.8207070231437683 -0.8207070231437683 -1.0000016689300537 -1.0000016689300537 -1.0000016689300537 -1.0000016689300537 -0.6944444179534912 -0.6944444179534912 -0.5681817531585693 -0.5681817531585693 -0.6944444179534912 -0.6944444179534912 -0.5681817531585693 -0.5681817531585693 -1.0000016689300537 -1.0000016689300537 -1.0000016689300537 -1.0000016689300537 -1.0000016689300537 -1.0000016689300537 -1.0000016689300537 -1.0000016689300537 -1.0000016689300537 -1.0000016689300537 -1.0000016689300537 -1.0000016689300537 -1.0000016689300537 -1.0000016689300537 -1.0000016689300537 -1.0000016689300537 -1.0000016689300537 -1.0000016689300537 -1.0000016689300537 -1.0000016689300537 -0.8207070231437683 -0.8207070231437683 -1.0000016689300537 -1.0000016689300537 -1.0000016689300537 -1.0000016689300537 -1.0000016689300537 -1.0000016689300537 -1.0000016689300537 -1.0000016689300537 -0.8207070231437683 -0.8207070231437683 -0.8207070231437683 -1.0000016689300537 -1.0000016689300537 -1.0000016689300537 -1.0000016689300537 -0.8207070231437683 -0.8207070231437683 -0.6944444179534912 -0.6944444179534912 -0.5681817531585693 -0.5681817531585693 -0.6944444179534912 -0.5681817531585693 -0.5681817531585693 -0.6944444179534912 -0.6944444179534912 -0.5681817531585693 -0.6944444179534912 -0.5681817531585693 -0.5681817531585693 -0.6944444179534912 -1.0000016689300537 -1.0000016689300537 -1.0000016689300537 -1.0000016689300537 -1.0000016689300537 -1.0000016689300537 -1.0000016689300537 -1.0000016689300537 -1.0000016689300537 -1.0000016689300537 -1.0000016689300537 -1.0000016689300537 -0.8207070231437683 -0.8207070231437683 -1.0000016689300537 -1.0000016689300537 -1.0000016689300537 -1.0000016689300537 -0.8207070231437683 -0.8207070231437683 -0.6944444179534912 -0.5681817531585693 -0.5681817531585693 -0.6944444179534912 -0.6944444179534912 -0.5681817531585693 -0.5681817531585693 -0.6944444179534912 -0.44191914796829224 -0.44191914796829224 -0.31565654277801514 -0.31565654277801514 -0.44191914796829224 -0.44191914796829224 -0.31565654277801514 -0.31565654277801514 -0.18939393758773804 -0.18939393758773804 -0.06313133239746094 -0.06313133239746094 -0.18939393758773804 -0.18939393758773804 -0.06313133239746094 -0.06313133239746094 -0.44191914796829224 -0.44191914796829224 -0.31565654277801514 -0.31565654277801514 -0.44191914796829224 -0.31565654277801514 -0.31565654277801514 -0.44191914796829224 -0.44191914796829224 -0.31565654277801514 -0.44191914796829224 -0.31565654277801514 -0.31565654277801514 -0.44191914796829224 -0.18939393758773804 -0.18939393758773804 -0.06313133239746094 -0.06313133239746094 -0.18939393758773804 -0.06313133239746094 -0.06313133239746094 -0.18939393758773804 -0.18939393758773804 -0.06313133239746094 -0.18939393758773804 -0.06313133239746094 -0.06313133239746094 -0.18939393758773804 -0.44191914796829224 -0.31565654277801514 -0.31565654277801514 -0.44191914796829224 -0.44191914796829224 -0.31565654277801514 -0.31565654277801514 -0.44191914796829224 -0.18939393758773804 -0.06313133239746094 -0.06313133239746094 -0.18939393758773804 -0.18939393758773804 -0.06313133239746094 -0.06313133239746094 -0.18939393758773804 -1.0000016689300537 -1.0000016689300537 -1.0000016689300537 -1.0000016689300537 -1.0000016689300537 -1.0000016689300537 -1.0000016689300537 -1.0000016689300537 -1.0000016689300537 -1.0000016689300537 -1.0000016689300537 -1.0000016689300537 -1.0000016689300537 -1.0000016689300537 -1.0000016689300537 -1.0000016689300537 -1.0000016689300537 -1.0000016689300537 -1.0000016689300537 -1.0000016689300537 -1.0000016689300537 -1.0000016689300537 -1.0000016689300537 -1.0000016689300537 -0.8207070231437683 -0.8207070231437683 -1.0000016689300537 -1.0000016689300537 -1.0000016689300537 -1.0000016689300537 -1.0000016689300537 -1.0000016689300537 -1.0000016689300537 -1.0000016689300537 -0.8207070231437683 -0.8207070231437683 -0.6449695825576782 -0.7500001192092896 -0.7500001192092896 -0.6449695825576782 -0.5953091382980347 -0.5953091382980347 -0.6449695825576782 -0.7500001192092896 -0.7500001192092896 -0.6449695825576782 -0.5953091382980347 -0.5953091382980347 -0.5321778059005737 -0.5321778059005737 -0.5321778059005737 -0.5321778059005737 -1.0000016689300537 -1.0000016689300537 -1.0000016689300537 -1.0000016689300537 -1.0000016689300537 -1.0000016689300537 -1.0000016689300537 -1.0000016689300537 -1.0000016689300537 -1.0000016689300537 -1.0000016689300537 -1.0000016689300537 -0.8207070231437683 -0.8207070231437683 -1.0000016689300537 -1.0000016689300537 -1.0000016689300537 -1.0000016689300537 -0.8207070231437683 -0.8207070231437683 -0.6944444179534912 -0.5681817531585693 -0.5681817531585693 -0.6944444179534912 -0.6944444179534912 -0.5681817531585693 -0.5681817531585693 -0.6944444179534912 -1.0000016689300537 -1.0000016689300537 -1.0000016689300537 -1.0000016689300537 -1.0000016689300537 -1.0000016689300537 -1.0000016689300537 -1.0000016689300537 -0.8207070231437683 -0.8207070231437683 -1.0000016689300537 -1.0000016689300537 -1.0000016689300537 -1.0000016689300537 -0.8207070231437683 -0.8207070231437683 -1.0000016689300537 -1.0000016689300537 -1.0000016689300537 -1.0000016689300537 -0.8207070231437683 -0.8207070231437683 -0.8207070231437683 -0.6449695825576782 -0.7500001192092896 -0.7500001192092896 -0.6449695825576782 -0.5953091382980347 -0.5953091382980347 -0.6944444179534912 -0.5307740569114685 -0.5681817531585693 -0.6944444179534912 -0.6416622996330261 -0.7500004768371582 -0.7500001192092896 -0.6449695825576782 -0.5953091382980347 -0.5924828052520752 -0.5321778059005737 -0.5321778059005737 -0.5321778059005737 -0.36008161306381226 -0.29695045948028564 -0.29695045948028564 -0.36008161306381226 -0.40974223613739014 -0.40974223613739014 -0.36008161306381226 -0.29695045948028564 -0.29695045948028564 -0.36008161306381226 -0.40974223613739014 -0.40974223613739014 -0.0751880407333374 -0.11350411176681519 -0.11350411176681519 -0.0751880407333374 -0.13906168937683105 -0.13906168937683105 -0.17741811275482178 -0.2500011920928955 -0.2500011920928955 -0.17741811275482178 -0.0751880407333374 -0.11350411176681519 -0.11350411176681519 -0.0751880407333374 -0.13906168937683105 -0.13906168937683105 -0.17741811275482178 -0.2500011920928955 -0.2500011920928955 -0.17741811275482178 -0.5000008344650269 -0.5000008344650269 -0.5000008344650269 -0.5000008344650269 -0.44191914796829224 -0.31565654277801514 -0.31565654277801514 -0.44191914796829224 -0.44191914796829224 -0.31565654277801514 -0.31565654277801514 -0.44191914796829224 -0.18939393758773804 -0.06313133239746094 -0.06313133239746094 -0.18939393758773804 -0.18939393758773804 0.0 -0.06313133239746094 -0.18939393758773804 -0.36008161306381226 -0.29695045948028564 -0.29695045948028564 -0.36008161306381226 -0.40974223613739014 -0.40974223613739014 -0.47706255316734314 -0.31565654277801514 -0.31565654277801514 -0.44191914796829224 -0.36008161306381226 -0.29695045948028564 -0.3004380464553833 -0.36267518997192383 -0.41217219829559326 -0.40974223613739014 -0.0751880407333374 -0.11350411176681519 -0.11350411176681519 -0.0751880407333374 -0.13906168937683105 -0.13906168937683105 -0.17741811275482178 -0.2500011920928955 -0.2500011920928955 -0.17741811275482178 -0.0787840485572815 -0.11044901609420776 -0.11350411176681519 -0.0751880407333374 -0.1341230869293213 -0.18939393758773804 -0.13906168937683105 -0.18270611763000488 -0.25000131130218506 -0.2500011920928955 -0.17741811275482178 -0.5000008344650269 -0.5000008344650269 -0.5000008344650269 0.0 0.0 0.0 0.0 0.0 0.0 0.0 0.06313133239746094 0.18939387798309326 0.18939387798309326 0.06313133239746094 0.06313133239746094 0.18939387798309326 0.06313133239746094 0.18939387798309326 0.18939387798309326 0.06313133239746094 0.06313133239746094 0.06313133239746094 0.18939387798309326 0.18939387798309326 0.31565654277801514 0.441919207572937 0.441919207572937 0.31565654277801514 0.31565654277801514 0.441919207572937 0.31565654277801514 0.441919207572937 0.441919207572937 0.31565654277801514 0.31565654277801514 0.31565654277801514 0.441919207572937 0.441919207572937 0.06313133239746094 0.18939387798309326 0.18939387798309326 0.06313133239746094 0.06313133239746094 0.18939387798309326 0.18939387798309326 0.06313133239746094 0.31565654277801514 0.441919207572937 0.441919207572937 0.31565654277801514 0.31565654277801514 0.441919207572937 0.4999990463256836 0.31565654277801514 0.06313133239746094 0.06313133239746094 0.18939387798309326 0.18939387798309326 0.06313133239746094 0.06313133239746094 0.18939387798309326 0.18939387798309326 0.31565654277801514 0.31565654277801514 0.441919207572937 0.441919207572937 0.31565654277801514 0.31565654277801514 0.441919207572937 0.441919207572937 0.5681817531585693 0.6944444179534912 0.6944444179534912 0.5681817531585693 0.5681817531585693 0.6944444179534912 0.5681817531585693 0.6944444179534912 0.6944444179534912 0.5681817531585693 0.5681817531585693 0.5681817531585693 0.6944444179534912 0.6944444179534912 0.9999996423721313 0.9999996423721313 0.9999996423721313 0.9999996423721313 0.8207070827484131 0.8207070827484131 0.8207070827484131 0.9999996423721313 0.9999996423721313 0.9999996423721313 0.9999996423721313 0.8207070827484131 0.8207070827484131 0.9999996423721313 0.9999996423721313 0.9999996423721313 0.9999996423721313 0.8207070827484131 0.8207070827484131 0.9999996423721313 0.9999996423721313 0.9999996423721313 0.9999996423721313 0.5681817531585693 0.6944444179534912 0.6944444179534912 0.5681817531585693 0.5681817531585693 0.6944444179534912 0.6944444179534912 0.5164023637771606 0.9999996423721313 0.9999996423721313 0.9999996423721313 0.9999996423721313 0.8207070827484131 0.8207070827484131 0.9999996423721313 0.9999996423721313 0.9999996423721313 0.9999996423721313 0.8207070827484131 0.8207070827484131 0.9999996423721313 0.9999996423721313 0.9999996423721313 0.9999996423721313 0.9999996423721313 0.9999996423721313 0.9999996423721313 0.9999996423721313 0.5681817531585693 0.5681817531585693 0.6944444179534912 0.6944444179534912 0.5681817531585693 0.5681817531585693 0.6944444179534912 0.6944444179534912 0.9999996423721313 0.9999996423721313 0.9999996423721313 0.9999996423721313 0.8207070827484131 0.8207070827484131 0.9999996423721313 0.9999996423721313 0.9999996423721313 0.9999996423721313 0.9999996423721313 0.9999996423721313 0.9999996423721313 0.9999996423721313 0.8207070827484131 0.8207070827484131 0.9999996423721313 0.9999996423721313 0.9999996423721313 0.9999996423721313 0.9999996423721313 0.9999996423721313 0.9999996423721313 0.9999996423721313 0.9999996423721313 0.9999996423721313 0.9999996423721313 0.9999996423721313 0.9999996423721313 0.9999996423721313 0.9999996423721313 0.9999996423721313 0.9999996423721313 0.9999996423721313 0.9999996423721313 0.9999996423721313 0.5106916427612305 0.4999990463256836 0.5106916427612305 0.5106916427612305 0.4999990463256836 0.4999990463256836 0.5106916427612305 0.5106916427612305 0.4999990463256836 0.4999990463256836 0.5106916427612305 0.5106916427612305 0.4999990463256836 0.4999990463256836 0.06313133239746094 0.18939387798309326 0.18939387798309326 0.06313133239746094 0.06313133239746094 0.18939387798309326 0.18939387798309326 0.025055408477783203 0.468913197517395 0.4394097328186035 0.4378403425216675 0.46658003330230713 0.31565654277801514 0.31565654277801514 0.409906268119812 0.386971116065979 0.3894164562225342 0.4091007709503174 0.31565654277801514 0.3772619962692261 0.3722195625305176 0.468913197517395 0.4394097328186035 0.4394097328186035 0.468913197517395 0.409906268119812 0.386971116065979 0.386971116065979 0.409906268119812 0.3722195625305176 0.3722195625305176 0.07878267765045166 0.10391981899738312 0.11350321769714355 0.07518672943115234 0.18939387798309326 0.13412165641784668 0.13906073570251465 0.18270432949066162 0.24999940395355225 0.2499995231628418 0.17741632461547852 0.07518672943115234 0.11350321769714355 0.11350321769714355 0.07518672943115234 0.13906073570251465 0.13906073570251465 0.17741632461547852 0.2499995231628418 0.2499995231628418 0.17741632461547852 0.3508995771408081 0.32139670848846436 0.31961381435394287 0.34835314750671387 0.29189372062683105 0.2648336887359619 0.26851165294647217 0.2908746004104614 0.3508995771408081 0.32139670848846436 0.32139670848846436 0.3508995771408081 0.29189372062683105 0.2648336887359619 0.2648336887359619 0.29189372062683105 0.468913197517395 0.4394097328186035 0.4394097328186035 0.468913197517395 0.409906268119812 0.386971116065979 0.386971116065979 0.409906268119812 0.3722195625305176 0.3722195625305176 0.468913197517395 0.4394097328186035 0.4394097328186035 0.468913197517395 0.409906268119812 0.386971116065979 0.386971116065979 0.409906268119812 0.3722195625305176 0.3722195625305176 0.07518672943115234 0.11350321769714355 0.11350321769714355 0.07518672943115234 0.13906073570251465 0.13906073570251465 0.17741632461547852 0.2499995231628418 0.2499995231628418 0.17741632461547852 0.07518672943115234 0.11350321769714355 0.11350321769714355 0.07518672943115234 0.13906073570251465 0.13906073570251465 0.17741632461547852 0.2499995231628418 0.2499995231628418 0.17741632461547852 0.3508995771408081 0.32139670848846436 0.32139670848846436 0.3508995771408081 0.29189372062683105 0.2648336887359619 0.2648336887359619 0.29189372062683105 0.3508995771408081 0.32139670848846436 0.32139670848846436 0.3508995771408081 0.29189372062683105 0.2648336887359619 0.2648336887359619 0.29189372062683105 0.5336790084838867 0.5624189376831055 0.560588002204895 0.5310842990875244 0.6944444179534912 0.6944444179534912 0.5911586284637451 0.6141235828399658 0.6180784702301025 0.5900914669036865 0.6944444179534912 0.625070333480835 0.6328299045562744 0.5310842990875244 0.560588002204895 0.560588002204895 0.5310842990875244 0.5900914669036865 0.6180784702301025 0.6180784702301025 0.5900914669036865 0.6328299045562744 0.6328299045562744 0.9999996423721313 0.9999996423721313 0.9999996423721313 0.9999996423721313 0.8207070827484131 0.8207070827484131 0.9999996423721313 0.9999996423721313 0.9999996423721313 0.9999996423721313 0.8207070827484131 0.8207070827484131 0.9999996423721313 0.9999996423721313 0.9999996423721313 0.9999996423721313 0.9999996423721313 0.9999996423721313 0.9999996423721313 0.9999996423721313 0.6519063711166382 0.6806453466415405 0.6786011457443237 0.64909827709198 0.7093847990036011 0.7499983310699463 0.7499983310699463 0.7081042528152466 0.64909827709198 0.6786011457443237 0.6786011457443237 0.64909827709198 0.7081042528152466 0.7499983310699463 0.7499983310699463 0.7081042528152466 0.9999996423721313 0.9999996423721313 0.9999996423721313 0.9999996423721313 0.8207070827484131 0.8207070827484131 0.9999996423721313 0.9999996423721313 0.9999996423721313 0.9999996423721313 0.8207070827484131 0.8207070827484131 0.8207070827484131 0.9999996423721313 0.9999996423721313 0.9999996423721313 0.9999996423721313 0.9999996423721313 0.9999996423721313 0.9999996423721313 0.9999996423721313 0.8207070827484131 0.8207070827484131 0.5310842990875244 0.560588002204895 0.560588002204895 0.5310842990875244 0.5900914669036865 0.6180784702301025 0.6180784702301025 0.5900914669036865 0.6328299045562744 0.6328299045562744 0.5310842990875244 0.560588002204895 0.560588002204895 0.5310842990875244 0.5900914669036865 0.6180784702301025 0.6180784702301025 0.5900914669036865 0.6328299045562744 0.6328299045562744 0.9999996423721313 0.9999996423721313 0.9999996423721313 0.9999996423721313 0.9999996423721313 0.9999996423721313 0.9999996423721313 0.9999996423721313 0.9999996423721313 0.9999996423721313 0.9999996423721313 0.9999996423721313 0.9999996423721313 0.9999996423721313 0.9999996423721313 0.9999996423721313 0.64909827709198 0.6786011457443237 0.6786011457443237 0.64909827709198 0.7081042528152466 0.7499983310699463 0.7499983310699463 0.7081042528152466 0.64909827709198 0.6786011457443237 0.6786011457443237 0.64909827709198 0.7081042528152466 0.7499983310699463 0.7499983310699463 0.7081042528152466 0.9999996423721313 0.9999996423721313 0.9999996423721313 0.9999996423721313 0.9999996423721313 0.9999996423721313 0.9999996423721313 0.9999996423721313 0.8207070827484131 0.8207070827484131 0.9999996423721313 0.9999996423721313 0.9999996423721313 0.9999996423721313 0.9999996423721313 0.9999996423721313 0.9999996423721313 0.9999996423721313 0.8207070827484131 0.8207070827484131 0.024814844131469727 0.024814844131469727 0.024814844131469727 0.024814844131469727 0.024814844131469727 0.024814844131469727 0.024814844131469727 0.06313133239746094 0.06313133239746094 0.18939387798309326 0.18939387798309326 0.06313133239746094 0.06313133239746094 0.18939387798309326 0.18939387798309326 0.31565654277801514 0.31565654277801514 0.441919207572937 0.441919207572937 0.31565654277801514 0.31565654277801514 0.441919207572937 0.441919207572937 0.06313133239746094 0.06313133239746094 0.18939387798309326 0.18939387798309326 0.06313133239746094 0.18939387798309326 0.18939387798309326 0.06313133239746094 0.06313133239746094 0.18939387798309326 0.06313133239746094 0.18939387798309326 0.18939387798309326 0.06313133239746094 0.31565654277801514 0.31565654277801514 0.441919207572937 0.441919207572937 0.31565654277801514 0.441919207572937 0.441919207572937 0.31565654277801514 0.31565654277801514 0.441919207572937 0.31565654277801514 0.441919207572937 0.441919207572937 0.31565654277801514 0.06313133239746094 0.18939387798309326 0.18939387798309326 0.06313133239746094 0.06313133239746094 0.18939387798309326 0.18939387798309326 0.06313133239746094 0.31565654277801514 0.441919207572937 0.441919207572937 0.31565654277801514 0.31565654277801514 0.4999990463256836 0.441919207572937 0.31565654277801514 0.5681817531585693 0.5681817531585693 0.6944444179534912 0.6944444179534912 0.5681817531585693 0.5681817531585693 0.6944444179534912 0.6944444179534912 0.9999996423721313 0.9999996423721313 0.9999996423721313 0.9999996423721313 0.8207070827484131 0.8207070827484131 0.9999996423721313 0.9999996423721313 0.9999996423721313 0.9999996423721313 0.9999996423721313 0.9999996423721313 0.9999996423721313 0.9999996423721313 0.8207070827484131 0.8207070827484131 0.9999996423721313 0.9999996423721313 0.9999996423721313 0.9999996423721313 0.9999996423721313 0.9999996423721313 0.9999996423721313 0.9999996423721313 0.9999996423721313 0.9999996423721313 0.9999996423721313 0.9999996423721313 0.9999996423721313 0.9999996423721313 0.9999996423721313 0.9999996423721313 0.9999996423721313 0.9999996423721313 0.9999996423721313 0.9999996423721313 0.5681817531585693 0.5681817531585693 0.6944444179534912 0.6944444179534912 0.5681817531585693 0.6944444179534912 0.6944444179534912 0.5681817531585693 0.5681817531585693 0.6944444179534912 0.5681817531585693 0.6944444179534912 0.6944444179534912 0.5681817531585693 0.9999996423721313 0.9999996423721313 0.9999996423721313 0.9999996423721313 0.8207070827484131 0.8207070827484131 0.9999996423721313 0.9999996423721313 0.9999996423721313 0.9999996423721313 0.9999996423721313 0.9999996423721313 0.9999996423721313 0.9999996423721313 0.8207070827484131 0.8207070827484131 0.8207070827484131 0.9999996423721313 0.9999996423721313 0.9999996423721313 0.9999996423721313 0.8207070827484131 0.8207070827484131 0.5681817531585693 0.6944444179534912 0.6944444179534912 0.5681817531585693 0.5051501989364624 0.6944444179534912 0.6944444179534912 0.5681817531585693 0.9999996423721313 0.9999996423721313 0.9999996423721313 0.9999996423721313 0.9999996423721313 0.9999996423721313 0.9999996423721313 0.9999996423721313 0.9999996423721313 0.9999996423721313 0.9999996423721313 0.9999996423721313 0.8207070827484131 0.8207070827484131 0.9999996423721313 0.9999996423721313 0.9999996423721313 0.9999996423721313 0.8207070827484131 0.8207070827484131 0.5106916427612305 0.5106916427612305 0.4999990463256836 0.4999990463256836 0.5106916427612305 0.5106916427612305 0.4999990463256836 0.4999990463256836 0.5106916427612305 0.5106916427612305 0.4999990463256836 0.4999990463256836 0.5106916427612305 0.4999990463256836 0.468913197517395 0.4394097328186035 0.4394097328186035 0.468913197517395 0.409906268119812 0.386971116065979 0.386971116065979 0.409906268119812 0.3722195625305176 0.3722195625305176 0.468913197517395 0.4394097328186035 0.4394097328186035 0.468913197517395 0.409906268119812 0.386971116065979 0.386971116065979 0.409906268119812 0.3722195625305176 0.3722195625305176 0.07518672943115234 0.11350321769714355 0.11350321769714355 0.07518672943115234 0.13906073570251465 0.13906073570251465 0.17741632461547852 0.2499995231628418 0.2499995231628418 0.17741632461547852 0.07518672943115234 0.11350321769714355 0.11350321769714355 0.07518672943115234 0.13906073570251465 0.13906073570251465 0.17741632461547852 0.2499995231628418 0.2499995231628418 0.17741632461547852 0.3508995771408081 0.32139670848846436 0.32139670848846436 0.3508995771408081 0.29189372062683105 0.2648336887359619 0.2648336887359619 0.29189372062683105 0.3508995771408081 0.32139670848846436 0.32139670848846436 0.3508995771408081 0.29189372062683105 0.2648336887359619 0.2648336887359619 0.29189372062683105 0.06313133239746094 0.18939387798309326 0.18939387798309326 0.06313133239746094 0.025055408477783203 0.18939387798309326 0.18939387798309326 0.06313133239746094 0.468913197517395 0.4394097328186035 0.4394097328186035 0.468913197517395 0.409906268119812 0.386971116065979 0.386971116065979 0.409906268119812 0.3722195625305176 0.3722195625305176 0.46658003330230713 0.4378403425216675 0.4394097328186035 0.468913197517395 0.31565654277801514 0.31565654277801514 0.4091007709503174 0.3894164562225342 0.386971116065979 0.409906268119812 0.3772619962692261 0.31565654277801514 0.3722195625305176 0.07518672943115234 0.11350321769714355 0.11350321769714355 0.07518672943115234 0.139