#
TITLE=""
VARIABLES="X", "Y", "Z", "T", "Hw", "Hi", "HTC", "Beta", "TauX", "TauY", "TauZ"
ZONE T="ZONE 1"
NODES=3195
ELEMENTS=6386
DATAPACKING=BLOCK
ZONETYPE=FETRIANGLE
VARLOCATION=([4-11]=CELLCENTERED)
-1.0000001192092896 -0.9807037115097046 -0.9855278134346008 -0.9998803734779358 -0.9854679107666016 -0.9806239008903503 -0.9854080677032471 -0.9424950480461121 -0.9424950480461121 -0.9424950480461121 -0.9424950480461121 -0.9855278134346008 -0.9424950480461121 -0.9855278134346008 -1.0000001192092896 -0.9998803734779358 -0.9854080677032471 -0.9855278134346008 -1.0000001192092896 -0.9998803734779358 -0.9854080677032471 -0.9855278134346008 -1.0000001192092896 -0.9998803734779358 -0.9854080677032471 -0.9855278134346008 -1.0000001192092896 -0.9998803734779358 -0.9854080677032471 -0.9855278134346008 -1.0000001192092896 -0.9998803734779358 -0.9854080677032471 -0.9855278134346008 -1.0000001192092896 -0.9998803734779358 -0.9854080677032471 -0.9855278134346008 -1.0000001192092896 -0.9998803734779358 -0.9854080677032471 -0.9855278134346008 -1.0000001192092896 -0.9998803734779358 -0.9854080677032471 -0.9424950480461121 -0.9424950480461121 -0.9424950480461121 -0.9424950480461121 -0.9424950480461121 -0.9424950480461121 -0.9424950480461121 -0.9424950480461121 -0.9424950480461121 -0.9424950480461121 -0.9424950480461121 -0.9424950480461121 -0.9424950480461121 -0.9424950480461121 -0.9424950480461121 -0.9424950480461121 -0.9855278134346008 -1.0000001192092896 -0.9998803734779358 -0.9854080677032471 -0.9855278134346008 -1.0000001192092896 -0.9998803734779358 -0.9854080677032471 -0.9855278134346008 -1.0000001192092896 -0.9998803734779358 -0.9854080677032471 -0.9855278134346008 -1.0000001192092896 -0.9998803734779358 -0.9854080677032471 -0.9855278134346008 -1.0000001192092896 -0.9998803734779358 -0.9854080677032471 -0.9855278134346008 -1.0000001192092896 -0.9998803734779358 -0.9854080677032471 -0.9855278134346008 -1.0000001192092896 -0.9998803734779358 -0.9854080677032471 -0.9855278134346008 -1.0000001192092896 -0.9998803734779358 -0.9854080677032471 -0.9424950480461121 -0.9424950480461121 -0.9424950480461121 -0.9424950480461121 -0.9424950480461121 -0.9424950480461121 -0.9424950480461121 -0.9424950480461121 -0.9424950480461121 -0.9424950480461121 -0.9424950480461121 -0.9424950480461121 -0.9424950480461121 -0.9424950480461121 -0.9424950480461121 -0.9424950480461121 -0.885374128818512 -0.885374128818512 -0.885374128818512 -0.885374128818512 -0.885374128818512 -0.8282532095909119 -0.8282532095909119 -0.8282532095909119 -0.8282532095909119 -0.8282532095909119 -0.885374128818512 -0.8282532095909119 -0.7711322903633118 -0.7711322903633118 -0.7711322903633118 -0.7711322903633118 -0.7711322903633118 -0.7711322903633118 -0.7140113711357117 -0.7140113711357117 -0.7140113711357117 -0.7140113711357117 -0.7140113711357117 -0.7140113711357117 -0.6568905115127563 -0.6568905115127563 -0.6568905115127563 -0.6568905115127563 -0.6568905115127563 -0.6568905115127563 -0.5997695922851562 -0.5997695922851562 -0.5997695922851562 -0.5997695922851562 -0.5997695922851562 -0.5997695922851562 -0.5426486730575562 -0.5426486730575562 -0.5426486730575562 -0.5426486730575562 -0.5426486730575562 -0.5426486730575562 -0.48552775382995605 -0.48552775382995605 -0.48552775382995605 -0.48552775382995605 -0.48552775382995605 -0.48552775382995605 -0.9424950480461121 -0.885374128818512 -0.885374128818512 -0.885374128818512 -0.885374128818512 -0.885374128818512 -0.885374128818512 -0.885374128818512 -0.885374128818512 -0.885374128818512 -0.885374128818512 -0.885374128818512 -0.885374128818512 -0.885374128818512 -0.885374128818512 -0.885374128818512 -0.8282532095909119 -0.885374128818512 -0.8282532095909119 -0.8282532095909119 -0.8282532095909119 -0.8282532095909119 -0.8282532095909119 -0.8282532095909119 -0.8282532095909119 -0.8282532095909119 -0.8282532095909119 -0.8282532095909119 -0.8282532095909119 -0.8282532095909119 -0.8282532095909119 -0.8282532095909119 -0.8282532095909119 -0.7711322903633118 -0.7711322903633118 -0.7711322903633118 -0.7711322903633118 -0.7711322903633118 -0.7711322903633118 -0.7711322903633118 -0.7711322903633118 -0.7711322903633118 -0.7711322903633118 -0.7711322903633118 -0.7711322903633118 -0.7711322903633118 -0.7711322903633118 -0.7711322903633118 -0.7711322903633118 -0.7140113711357117 -0.7140113711357117 -0.7140113711357117 -0.7140113711357117 -0.7140113711357117 -0.7140113711357117 -0.7140113711357117 -0.7140113711357117 -0.7140113711357117 -0.7140113711357117 -0.7140113711357117 -0.7140113711357117 -0.7140113711357117 -0.7140113711357117 -0.7140113711357117 -0.7140113711357117 -0.6568905115127563 -0.6568905115127563 -0.6568905115127563 -0.6568905115127563 -0.6568905115127563 -0.6568905115127563 -0.6568905115127563 -0.6568905115127563 -0.6568905115127563 -0.660968005657196 -0.6568905115127563 -0.6813645362854004 -0.6446460485458374 -0.6528040766716003 -0.6568905115127563 -0.6813645362854004 -0.6528040766716003 -0.6568905115127563 -0.6813645362854004 -0.6528040766716003 -0.5997695922851562 -0.5997695922851562 -0.5997695922851562 -0.5997695922851562 -0.5997695922851562 -0.5997695922851562 -0.5997695922851562 -0.5997695922851562 -0.5997695922851562 -0.5997695922851562 -0.5997695922851562 -0.5997695922851562 -0.5997695922851562 -0.5997695922851562 -0.5997695922851562 -0.5997695922851562 -0.5997695922851562 -0.5426486730575562 -0.5426486730575562 -0.5426486730575562 -0.5426486730575562 -0.5426486730575562 -0.5426486730575562 -0.5426486730575562 -0.5426486730575562 -0.5426486730575562 -0.5426486730575562 -0.5426486730575562 -0.5426486730575562 -0.5426486730575562 -0.5426486730575562 -0.5405844449996948 -0.5426486730575562 -0.5405844449996948 -0.48552775382995605 -0.48552775382995605 -0.48552775382995605 -0.48552775382995605 -0.48552775382995605 -0.48552775382995605 -0.48552775382995605 -0.48552775382995605 -0.48552775382995605 -0.48552775382995605 -0.48552775382995605 -0.48552775382995605 -0.48552775382995605 -0.48552775382995605 -0.48404088616371155 -0.48552775382995605 -0.48404088616371155 -0.5111289620399475 -0.885374128818512 -0.885374128818512 -0.885374128818512 -0.885374128818512 -0.885374128818512 -0.885374128818512 -0.885374128818512 -0.885374128818512 -0.885374128818512 -0.885374128818512 -0.885374128818512 -0.885374128818512 -0.885374128818512 -0.885374128818512 -0.885374128818512 -0.885374128818512 -0.8282532095909119 -0.8282532095909119 -0.8282532095909119 -0.8282532095909119 -0.8282532095909119 -0.8282532095909119 -0.8282532095909119 -0.8282532095909119 -0.8282532095909119 -0.8282532095909119 -0.8282532095909119 -0.8282532095909119 -0.8282532095909119 -0.8282532095909119 -0.8282532095909119 -0.8282532095909119 -0.7711322903633118 -0.7711322903633118 -0.7711322903633118 -0.7711322903633118 -0.7711322903633118 -0.7711322903633118 -0.7711322903633118 -0.7711322903633118 -0.7711322903633118 -0.7711322903633118 -0.7711322903633118 -0.7711322903633118 -0.7711322903633118 -0.7711322903633118 -0.7711322903633118 -0.7711322903633118 -0.7140113711357117 -0.7140113711357117 -0.7140113711357117 -0.7140113711357117 -0.7140113711357117 -0.7140113711357117 -0.7140113711357117 -0.7140113711357117 -0.7140113711357117 -0.7140113711357117 -0.7140113711357117 -0.7140113711357117 -0.7140113711357117 -0.7140113711357117 -0.7140113711357117 -0.7140113711357117 -0.6568905115127563 -0.6813645362854004 -0.6528040766716003 -0.6568905115127563 -0.6792656183242798 -0.6507051587104797 -0.6568905115127563 -0.6592888832092285 -0.641847550868988 -0.6568905115127563 -0.6568905115127563 -0.6568905115127563 -0.6568905115127563 -0.6568905115127563 -0.6568905115127563 -0.6568905115127563 -0.6568905115127563 -0.6568905115127563 -0.6608777046203613 -0.5997695922851562 -0.5997695922851562 -0.5997695922851562 -0.5997695922851562 -0.5997695922851562 -0.5997695922851562 -0.5997695922851562 -0.5997695922851562 -0.5997695922851562 -0.5997695922851562 -0.5997695922851562 -0.5997695922851562 -0.5997695922851562 -0.5997695922851562 -0.603847086429596 -0.5997695922851562 -0.6256057620048523 -0.5875251293182373 -0.603847086429596 -0.6444954872131348 -0.5426486730575562 -0.5426486730575562 -0.5426486730575562 -0.5426486730575562 -0.5426486730575562 -0.5426486730575562 -0.5426486730575562 -0.5426486730575562 -0.5426486730575562 -0.5426486730575562 -0.5426486730575562 -0.5426486730575562 -0.5467262268066406 -0.5426486730575562 -0.5684848427772522 -0.530404269695282 -0.5467262268066406 -0.5426486730575562 -0.5404297113418579 -0.48552775382995605 -0.48552775382995605 -0.48552775382995605 -0.48589396476745605 -0.48552775382995605 -0.5051783919334412 -0.46709778904914856 -0.48589396476745605 -0.48552775382995605 -0.48552775382995605 -0.48552775382995605 -0.48552775382995605 -0.48552775382995605 -0.48552775382995605 -0.48552775382995605 -0.48552775382995605 -0.48552775382995605 -0.48552775382995605 -0.4842101037502289 -0.42840683460235596 -0.42840683460235596 -0.42840683460235596 -0.42840683460235596 -0.42840683460235596 -0.42840683460235596 -0.37128591537475586 -0.37128591537475586 -0.37128591537475586 -0.37128591537475586 -0.37128591537475586 -0.37128591537475586 -0.31416502594947815 -0.31416502594947815 -0.31416502594947815 -0.31416502594947815 -0.31416502594947815 -0.31416502594947815 -0.25704410672187805 -0.25704410672187805 -0.25704410672187805 -0.25704410672187805 -0.25704410672187805 -0.25704410672187805 -0.19992318749427795 -0.19992318749427795 -0.19992318749427795 -0.19992318749427795 -0.19992318749427795 -0.19992318749427795 -0.14280228316783905 -0.14280228316783905 -0.14280228316783905 -0.14280228316783905 -0.14280228316783905 -0.14280228316783905 -0.08568136394023895 -0.08568136394023895 -0.08568136394023895 -0.08568136394023895 -0.08568136394023895 -0.08568136394023895 -0.02856045588850975 -0.02856045588850975 -0.02856045588850975 -0.02856045588850975 -0.02856045588850975 -0.02856045588850975 -0.42840683460235596 -0.42840683460235596 -0.42840683460235596 -0.42840683460235596 -0.42840683460235596 -0.42840683460235596 -0.42840683460235596 -0.42840683460235596 -0.42840683460235596 -0.42840683460235596 -0.42840683460235596 -0.42840683460235596 -0.42840683460235596 -0.42840683460235596 -0.42840683460235596 -0.42840683460235596 -0.42840683460235596 -0.37128591537475586 -0.37128591537475586 -0.37128591537475586 -0.37128591537475586 -0.37128591537475586 -0.37128591537475586 -0.37128591537475586 -0.37128591537475586 -0.37128591537475586 -0.37128591537475586 -0.37128591537475586 -0.37128591537475586 -0.37128591537475586 -0.37128591537475586 -0.37128591537475586 -0.37128591537475586 -0.36933109164237976 -0.31416502594947815 -0.31416502594947815 -0.31416502594947815 -0.31416502594947815 -0.31416502594947815 -0.31416502594947815 -0.31416502594947815 -0.31416502594947815 -0.31416502594947815 -0.3156866431236267 -0.3357413411140442 -0.31416502594947815 -0.30368882417678833 -0.3322492837905884 -0.31416502594947815 -0.30458739399909973 -0.3331478536128998 -0.31416502594947815 -0.33693942427635193 -0.3164054751396179 -0.3489875793457031 -0.25704410672187805 -0.25704410672187805 -0.25704410672187805 -0.25704410672187805 -0.25704410672187805 -0.25704410672187805 -0.25704410672187805 -0.25704410672187805 -0.25704410672187805 -0.25704410672187805 -0.25704410672187805 -0.25704410672187805 -0.25704410672187805 -0.25704410672187805 -0.25704410672187805 -0.25704410672187805 -0.19992318749427795 -0.19992318749427795 -0.19992318749427795 -0.19992318749427795 -0.19992318749427795 -0.19992318749427795 -0.19992318749427795 -0.19992318749427795 -0.19992318749427795 -0.19992318749427795 -0.19992318749427795 -0.19992318749427795 -0.19992318749427795 -0.19992318749427795 -0.19992318749427795 -0.19992318749427795 -0.14280228316783905 -0.14280228316783905 -0.14280228316783905 -0.14280228316783905 -0.14280228316783905 -0.14280228316783905 -0.14280228316783905 -0.14280228316783905 -0.14280228316783905 -0.14280228316783905 -0.14280228316783905 -0.14280228316783905 -0.14280228316783905 -0.14687980711460114 -0.14280228316783905 -0.16155123710632324 -0.1305578649044037 -0.1329907774925232 -0.08568136394023895 -0.08568136394023895 -0.08568136394023895 -0.08568136394023895 -0.08568136394023895 -0.08568136394023895 -0.08568136394023895 -0.08568136394023895 -0.08568136394023895 -0.08568136394023895 -0.08568136394023895 -0.08975890278816223 -0.08568136394023895 -0.11151756346225739 -0.07343696057796478 -0.08975890278816223 -0.08568136394023895 -0.08568136394023895 -0.02856045588850975 -0.02856045588850975 -0.02856045588850975 -0.02856045588850975 -0.02856045588850975 -0.02856045588850975 -0.02856045588850975 -0.02856045588850975 -0.02856045588850975 -0.03263798728585243 -0.02856045588850975 -0.054396647959947586 -0.016316037625074387 -0.03263798728585243 -0.02856045588850975 -0.026496252045035362 -0.02856045588850975 -0.026496252045035362 -0.42840683460235596 -0.42645201086997986 -0.42840683460235596 -0.4441891014575958 -0.4061084985733032 -0.42645201086997986 -0.42840683460235596 -0.42840683460235596 -0.42840683460235596 -0.4241214692592621 -0.42840683460235596 -0.4241214692592621 -0.40222424268722534 -0.40222424268722534 -0.42840683460235596 -0.42890939116477966 -0.44828474521636963 -0.42840683460235596 -0.41020411252975464 -0.42890939116477966 -0.42840683460235596 -0.42840683460235596 -0.37128591537475586 -0.3870681822299957 -0.36933109164237976 -0.37128591537475586 -0.37128591537475586 -0.37128591537475586 -0.37536346912384033 -0.37128591537475586 -0.3971221148967743 -0.3590415120124817 -0.37536346912384033 -0.37128591537475586 -0.3832232654094696 -0.36702415347099304 -0.37128591537475586 -0.36702415347099304 -0.345142662525177 -0.37128591537475586 -0.37178847193717957 -0.39116382598876953 -0.37128591537475586 -0.35308319330215454 -0.37178847193717957 -0.31416502594947815 -0.31416502594947815 -0.31416502594947815 -0.31824254989624023 -0.31416502594947815 -0.3400011956691742 -0.3019205927848816 -0.31824254989624023 -0.31416502594947815 -0.31416502594947815 -0.31416502594947815 -0.31416502594947815 -0.31416502594947815 -0.3261023759841919 -0.30990323424339294 -0.31416502594947815 -0.30990323424339294 -0.2880217432975769 -0.31416502594947815 -0.3164280354976654 -0.3369770348072052 -0.25704410672187805 -0.25614476203918457 -0.25704410672187805 -0.2745855152606964 -0.2365049123764038 -0.25614476203918457 -0.25704410672187805 -0.25704410672187805 -0.25704410672187805 -0.25704410672187805 -0.25704410672187805 -0.25704410672187805 -0.25704410672187805 -0.25704410672187805 -0.25704410672187805 -0.25704410672187805 -0.25704410672187805 -0.25704410672187805 -0.25704410672187805 -0.19992318749427795 -0.20418496429920197 -0.226066455245018 -0.19992318749427795 -0.1879858374595642 -0.20418496429920197 -0.19992318749427795 -0.19992318749427795 -0.19992318749427795 -0.19992318749427795 -0.19992318749427795 -0.19992318749427795 -0.19992318749427795 -0.20042574405670166 -0.19992318749427795 -0.21980108320713043 -0.18172048032283783 -0.20042574405670166 -0.19992318749427795 -0.19992318749427795 -0.14280228316783905 -0.14229972660541534 -0.12292438745498657 -0.14280228316783905 -0.14706404507160187 -0.1689455360174179 -0.14280228316783905 -0.1308649331331253 -0.14706404507160187 -0.14280228316783905 -0.14280228316783905 -0.14280228316783905 -0.14330483973026276 -0.14280228316783905 -0.16268017888069153 -0.12459956854581833 -0.14330483973026276 -0.14280228316783905 -0.13854050636291504 -0.14280228316783905 -0.1588384062051773 -0.1166590228676796 -0.13027794659137726 -0.08568136394023895 -0.10388408601284027 -0.08517881482839584 -0.08568136394023895 -0.08517881482839584 -0.06580347567796707 -0.08568136394023895 -0.08994314074516296 -0.11182462424039841 -0.08568136394023895 -0.07738518714904785 -0.1059456467628479 -0.08568136394023895 -0.10559745132923126 -0.0862068384885788 -0.08568136394023895 -0.08141959458589554 -0.08568136394023895 -0.0976187214255333 -0.059538111090660095 -0.08141959458589554 -0.08568136394023895 -0.08568136394023895 -0.02856045588850975 -0.02856045588850975 -0.02856045588850975 -0.044920191168785095 -0.026952113956212997 -0.02856045588850975 -0.026952113956212997 -0.006839582230895758 -0.02856045588850975 -0.02856045588850975 -0.02856045588850975 -0.02856045588850975 -0.02856045588850975 -0.02856045588850975 -0.02856045588850975 -0.02856045588850975 -0.02856045588850975 -0.02856045588850975 -0.029136238619685173 -0.9855278134346008 -1.0000001192092896 -0.9998803734779358 -0.9854080677032471 -0.9855278134346008 -1.0000001192092896 -0.9998803734779358 -0.9854080677032471 -0.9855278134346008 -1.0000001192092896 -0.9998803734779358 -0.9854080677032471 -0.9855278134346008 -1.0000001192092896 -0.9998803734779358 -0.9854080677032471 -0.9855278134346008 -1.0000001192092896 -0.9998803734779358 -0.9854080677032471 -0.9855278134346008 -1.0000001192092896 -0.9998803734779358 -0.9854080677032471 -0.9855278134346008 -1.0000001192092896 -0.9998803734779358 -0.9854080677032471 -0.9855278134346008 -1.0000001192092896 -0.9998803734779358 -0.9854080677032471 -0.9424950480461121 -0.9424950480461121 -0.9424950480461121 -0.9424950480461121 -0.9424950480461121 -0.9424950480461121 -0.9424950480461121 -0.9424950480461121 -0.9424950480461121 -0.9424950480461121 -0.9424950480461121 -0.9424950480461121 -0.9424950480461121 -0.9424950480461121 -0.9424950480461121 -0.9424950480461121 -0.9855278134346008 -1.0000001192092896 -0.9998803734779358 -0.9854080677032471 -0.9855278134346008 -1.0000001192092896 -0.9998803734779358 -0.9854080677032471 -0.9855278134346008 -1.0000001192092896 -0.9998803734779358 -0.9854080677032471 -0.9855278134346008 -1.0000001192092896 -0.9998803734779358 -0.9854080677032471 -0.9855278134346008 -1.0000001192092896 -0.9998803734779358 -0.9854080677032471 -0.9855278134346008 -1.0000001192092896 -0.9998803734779358 -0.9854080677032471 -0.9855278134346008 -1.0000001192092896 -0.9998803734779358 -0.9854080677032471 -0.9855278134346008 -1.0000001192092896 -0.9998803734779358 -0.9854080677032471 -0.9424950480461121 -0.9424950480461121 -0.9424950480461121 -0.9424950480461121 -0.9424950480461121 -0.9424950480461121 -0.9424950480461121 -0.9424950480461121 -0.9424950480461121 -0.9424950480461121 -0.9424950480461121 -0.9424950480461121 -0.9424950480461121 -0.9424950480461121 -0.9424950480461121 -0.9424950480461121 -0.9855278134346008 -1.0000001192092896 -0.9998803734779358 -0.9854080677032471 -0.9807037115097046 -0.9855278134346008 -0.9854679107666016 -0.9806239008903503 -0.9424950480461121 -0.9424950480461121 -0.9424950480461121 -0.9424950480461121 -0.9424950480461121 -0.9424950480461121 -0.885374128818512 -0.885374128818512 -0.885374128818512 -0.885374128818512 -0.885374128818512 -0.885374128818512 -0.885374128818512 -0.885374128818512 -0.885374128818512 -0.885374128818512 -0.885374128818512 -0.885374128818512 -0.885374128818512 -0.885374128818512 -0.885374128818512 -0.885374128818512 -0.8282532095909119 -0.8282532095909119 -0.8282532095909119 -0.8282532095909119 -0.8282532095909119 -0.8282532095909119 -0.8282532095909119 -0.8282532095909119 -0.8282532095909119 -0.8282532095909119 -0.8282532095909119 -0.8282532095909119 -0.8282532095909119 -0.8282532095909119 -0.8282532095909119 -0.8282532095909119 -0.7711322903633118 -0.7711322903633118 -0.7711322903633118 -0.7711322903633118 -0.7711322903633118 -0.7711322903633118 -0.7711322903633118 -0.7711322903633118 -0.7711322903633118 -0.7711322903633118 -0.7711322903633118 -0.7711322903633118 -0.7711322903633118 -0.7711322903633118 -0.7711322903633118 -0.7711322903633118 -0.7140113711357117 -0.7140113711357117 -0.7140113711357117 -0.7140113711357117 -0.7140113711357117 -0.7140113711357117 -0.7140113711357117 -0.7140113711357117 -0.7140113711357117 -0.7140113711357117 -0.7140113711357117 -0.7140113711357117 -0.7140113711357117 -0.7140113711357117 -0.7140113711357117 -0.7140113711357117 -0.6568905115127563 -0.6608777046203613 -0.6444954872131348 -0.6568905115127563 -0.6568905115127563 -0.6568905115127563 -0.6568905115127563 -0.6568905115127563 -0.6568905115127563 -0.6568905115127563 -0.6568905115127563 -0.6568905115127563 -0.6568905115127563 -0.6568905115127563 -0.6568905115127563 -0.6568905115127563 -0.6525242924690247 -0.5997695922851562 -0.6256057620048523 -0.603847086429596 -0.5997695922851562 -0.603847086429596 -0.5875251293182373 -0.5997695922851562 -0.5997695922851562 -0.5997695922851562 -0.5997695922851562 -0.5997695922851562 -0.5997695922851562 -0.5997695922851562 -0.5997695922851562 -0.5997695922851562 -0.5954033732414246 -0.5997695922851562 -0.6115329265594482 -0.5734522938728333 -0.5954033732414246 -0.6305732131004333 -0.5426486730575562 -0.5404297113418579 -0.5426486730575562 -0.5684848427772522 -0.5467262268066406 -0.5426486730575562 -0.5467262268066406 -0.530404269695282 -0.5426486730575562 -0.5426486730575562 -0.5426486730575562 -0.5426486730575562 -0.5426486730575562 -0.5382824540138245 -0.5426486730575562 -0.5544120073318481 -0.5163313746452332 -0.5382824540138245 -0.5426486730575562 -0.5426486730575562 -0.48552775382995605 -0.5111410617828369 -0.4842101037502289 -0.48552775382995605 -0.48552775382995605 -0.48552775382995605 -0.48552775382995605 -0.48552775382995605 -0.48552775382995605 -0.48552775382995605 -0.48552775382995605 -0.48120036721229553 -0.48552775382995605 -0.49735575914382935 -0.45927515625953674 -0.48120036721229553 -0.48552775382995605 -0.48552775382995605 -0.48552775382995605 -0.4862811863422394 -0.885374128818512 -0.885374128818512 -0.885374128818512 -0.885374128818512 -0.885374128818512 -0.885374128818512 -0.885374128818512 -0.885374128818512 -0.885374128818512 -0.885374128818512 -0.885374128818512 -0.885374128818512 -0.885374128818512 -0.885374128818512 -0.885374128818512 -0.885374128818512 -0.8282532095909119 -0.8282532095909119 -0.8282532095909119 -0.8282532095909119 -0.8282532095909119 -0.8282532095909119 -0.8282532095909119 -0.8282532095909119 -0.8282532095909119 -0.8282532095909119 -0.8282532095909119 -0.8282532095909119 -0.8282532095909119 -0.8282532095909119 -0.8282532095909119 -0.8282532095909119 -0.7711322903633118 -0.7711322903633118 -0.7711322903633118 -0.7711322903633118 -0.7711322903633118 -0.7711322903633118 -0.7711322903633118 -0.7711322903633118 -0.7711322903633118 -0.7711322903633118 -0.7711322903633118 -0.7711322903633118 -0.7711322903633118 -0.7711322903633118 -0.7711322903633118 -0.7711322903633118 -0.7140113711357117 -0.7140113711357117 -0.7140113711357117 -0.7140113711357117 -0.7140113711357117 -0.7140113711357117 -0.7140113711357117 -0.7140113711357117 -0.7140113711357117 -0.7140113711357117 -0.7140113711357117 -0.7140113711357117 -0.7140113711357117 -0.7140113711357117 -0.7140113711357117 -0.7140113711357117 -0.6568905115127563 -0.6672878265380859 -0.6387273669242859 -0.6568905115127563 -0.6581503748893738 -0.6399499773979187 -0.6568905115127563 -0.6568905115127563 -0.6568905115127563 -0.6568905115127563 -0.6568905115127563 -0.6568905115127563 -0.6568905115127563 -0.6568905115127563 -0.6568905115127563 -0.6568905115127563 -0.6568905115127563 -0.6568905115127563 -0.5997695922851562 -0.5997695922851562 -0.5997695922851562 -0.6209096908569336 -0.6010294556617737 -0.5997695922851562 -0.6010294556617737 -0.5828291177749634 -0.5997695922851562 -0.5997695922851562 -0.5997695922851562 -0.5997695922851562 -0.5997695922851562 -0.5997695922851562 -0.5997695922851562 -0.5997695922851562 -0.5997695922851562 -0.5997695922851562 -0.5426486730575562 -0.5377668142318726 -0.5426486730575562 -0.5377668142318726 -0.5154719352722168 -0.5154719352722168 -0.5426486730575562 -0.5637887716293335 -0.5439085364341736 -0.5426486730575562 -0.5439085364341736 -0.5257081985473633 -0.5426486730575562 -0.5426486730575562 -0.5426486730575562 -0.5426486730575562 -0.5426486730575562 -0.5426486730575562 -0.5426486730575562 -0.5426486730575562 -0.48552775382995605 -0.5058237910270691 -0.4677431881427765 -0.48955029249191284 -0.48552775382995605 -0.5113574266433716 -0.473276823759079 -0.48960137367248535 -0.48552775382995605 -0.48552775382995605 -0.48552775382995605 -0.48552775382995605 -0.48552775382995605 -0.48552775382995605 -0.48552775382995605 -0.48552775382995605 -0.48552775382995605 -0.48552775382995605 -0.48552775382995605 -0.48552775382995605 -0.48552775382995605 -0.885374128818512 -0.885374128818512 -0.885374128818512 -0.885374128818512 -0.885374128818512 -0.885374128818512 -0.8282532095909119 -0.8282532095909119 -0.8282532095909119 -0.8282532095909119 -0.8282532095909119 -0.8282532095909119 -0.7711322903633118 -0.7711322903633118 -0.7711322903633118 -0.7711322903633118 -0.7711322903633118 -0.7711322903633118 -0.7140113711357117 -0.7140113711357117 -0.7140113711357117 -0.7140113711357117 -0.7140113711357117 -0.7140113711357117 -0.6568905115127563 -0.6568905115127563 -0.6568905115127563 -0.6568905115127563 -0.6568905115127563 -0.6568905115127563 -0.5997695922851562 -0.5997695922851562 -0.5997695922851562 -0.5997695922851562 -0.5997695922851562 -0.5997695922851562 -0.5426486730575562 -0.5426486730575562 -0.5426486730575562 -0.5426486730575562 -0.5426486730575562 -0.5426486730575562 -0.48552775382995605 -0.48552775382995605 -0.48552775382995605 -0.48552775382995605 -0.48552775382995605 -0.48552775382995605 -0.42840683460235596 -0.42840683460235596 -0.42840683460235596 -0.42890939116477966 -0.42840683460235596 -0.44828474521636963 -0.41020411252975464 -0.42890939116477966 -0.42840683460235596 -0.42413368821144104 -0.42840683460235596 -0.44032523036003113 -0.4022446274757385 -0.42413368821144104 -0.42840683460235596 -0.42840683460235596 -0.42840683460235596 -0.4291602671146393 -0.42840683460235596 -0.448702871799469 -0.4106222689151764 -0.42840683460235596 -0.37128591537475586 -0.37178847193717957 -0.37128591537475586 -0.39116382598876953 -0.35308319330215454 -0.37178847193717957 -0.37128591537475586 -0.36702415347099304 -0.37128591537475586 -0.3832232654094696 -0.345142662525177 -0.36702415347099304 -0.37128591537475586 -0.37128591537475586 -0.37128591537475586 -0.3720393776893616 -0.37128591537475586 -0.3915819525718689 -0.3535013496875763 -0.37128591537475586 -0.37128591537475586 -0.3890705108642578 -0.3509899079799652 -0.37053248286247253 -0.4081107974052429 -0.31416502594947815 -0.3369770348072052 -0.3164280354976654 -0.31416502594947815 -0.30990323424339294 -0.31416502594947815 -0.3261023759841919 -0.2880217432975769 -0.30990323424339294 -0.31416502594947815 -0.31416502594947815 -0.31416502594947815 -0.3149184584617615 -0.31416502594947815 -0.3344610333442688 -0.2963804304599762 -0.31416502594947815 -0.31416502594947815 -0.3319495916366577 -0.2938689887523651 -0.3134115934371948 -0.31416502594947815 -0.31416502594947815 -0.25704410672187805 -0.25704410672187805 -0.25704410672187805 -0.25704410672187805 -0.25704410672187805 -0.25704410672187805 -0.25704410672187805 -0.25704410672187805 -0.25704410672187805 -0.25704410672187805 -0.2562906742095947 -0.2748286724090576 -0.25704410672187805 -0.2748286724090576 -0.2562906742095947 -0.25704410672187805 -0.25704410672187805 -0.25704410672187805 -0.26131725311279297 -0.19992318749427795 -0.19992318749427795 -0.19992318749427795 -0.20042574405670166 -0.21980108320713043 -0.19992318749427795 -0.18172048032283783 -0.20042574405670166 -0.19992318749427795 -0.19992318749427795 -0.19992318749427795 -0.19992318749427795 -0.19992318749427795 -0.19992318749427795 -0.19992318749427795 -0.20418496429920197 -0.19992318749427795 -0.226066455245018 -0.1879858374595642 -0.20418496429920197 -0.24512571096420288 -0.14280228316783905 -0.1588384062051773 -0.13027794659137726 -0.14280228316783905 -0.13854050636291504 -0.1166590228676796 -0.14280228316783905 -0.14330482482910156 -0.16268016397953033 -0.14280228316783905 -0.12459955364465714 -0.14330482482910156 -0.14280228316783905 -0.14280228316783905 -0.14280228316783905 -0.14706404507160187 -0.14280228316783905 -0.1689455360174179 -0.1308649331331253 -0.14706404507160187 -0.14280228316783905 -0.14229972660541534 -0.08568136394023895 -0.08568136394023895 -0.08568136394023895 -0.0976187214255333 -0.08141959458589554 -0.08568136394023895 -0.08141959458589554 -0.059538111090660095 -0.08568136394023895 -0.0862068384885788 -0.10559745132923126 -0.08568136394023895 -0.07738518714904785 -0.1059456467628479 -0.08568136394023895 -0.11182462424039841 -0.08994314074516296 -0.08568136394023895 -0.08517881482839584 -0.08568136394023895 -0.10388408601284027 -0.06580347567796707 -0.08517881482839584 -0.12292438745498657 -0.02856045588850975 -0.029136238619685173 -0.010479791089892387 -0.010479791089892387 -0.02856045588850975 -0.02856045588850975 -0.02856045588850975 -0.02856045588850975 -0.02856045588850975 -0.02856045588850975 -0.02856045588850975 -0.02856045588850975 -0.02856045588850975 -0.02856045588850975 -0.026952113956212997 -0.02856045588850975 -0.044920191168785095 -0.006839582230895758 -0.026952113956212997 -0.02856045588850975 -0.02856045588850975 -0.42840683460235596 -0.4461914002895355 -0.42765340209007263 -0.42840683460235596 -0.42840683460235596 -0.42840683460235596 -0.43277302384376526 -0.42840683460235596 -0.45472413301467896 -0.41664353013038635 -0.43277302384376526 -0.42840683460235596 -0.42840683460235596 -0.42840683460235596 -0.42840683460235596 -0.42840683460235596 -0.42840683460235596 -0.42840683460235596 -0.42840683460235596 -0.37128591537475586 -0.37128591537475586 -0.37128591537475586 -0.37565210461616516 -0.37128591537475586 -0.39760321378707886 -0.35952261090278625 -0.37565210461616516 -0.37128591537475586 -0.37128591537475586 -0.37128591537475586 -0.37128591537475586 -0.37128591537475586 -0.37128591537475586 -0.37128591537475586 -0.37128591537475586 -0.37128591537475586 -0.37128591537475586 -0.31416502594947815 -0.3184923827648163 -0.31416502594947815 -0.3404175937175751 -0.30233699083328247 -0.3184923827648163 -0.31416502594947815 -0.31416502594947815 -0.31416502594947815 -0.31416502594947815 -0.31416502594947815 -0.31416502594947815 -0.31416502594947815 -0.31416502594947815 -0.31416502594