#
TITLE=""
VARIABLES="X", "Y", "Z", "T", "Hw", "Hi", "HTC", "Beta", "TauX", "TauY", "TauZ"
ZONE T="ZONE 1"
NODES=1546
ELEMENTS=3088
DATAPACKING=BLOCK
ZONETYPE=FETRIANGLE
VARLOCATION=([4-11]=CELLCENTERED)
-1.0 -1.0 -1.0 -1.0 0.875 0.875 1.0 1.0 1.0 1.0 1.0 1.0 -0.875 -0.875 -1.0 -1.0 0.875 1.0 1.0 0.875 -0.875 -1.0 0.125 0.0 0.0 0.125 0.1550963819026947 0.0 0.125 -0.875 -1.0 -1.0 -0.875 -0.125 0.0 0.0 -0.125 -0.125 0.0 0.0 -0.125 0.875 1.0 1.0 0.875 -0.875 -0.875 -1.0 -1.0 0.125 0.125 0.0 0.0 0.125 0.0 1.0 1.0 1.0 1.0 1.0 1.0 1.0 1.0 1.0 1.0 1.0 1.0 0.875 0.875 1.0 1.0 -0.125 -0.125 0.0 0.0 -0.125 -0.125 0.0 0.0 -1.0 -1.0 -1.0 -1.0 -1.0 -1.0 -1.0 -1.0 -1.0 -1.0 -1.0 -1.0 -1.0 -1.0 -1.0 -1.0 -1.0 -1.0 -1.0 -1.0 -1.0 -1.0 -1.0 -1.0 -1.0 -1.0 -1.0 -1.0 -1.0 -1.0 -1.0 -1.0 -1.0 -1.0 -1.0 -1.0 -1.0 -1.0 -1.0 -1.0 -1.0 -1.0 -1.0 -1.0 -1.0 -1.0 -1.0 -0.125 -0.125 0.0 0.0 -0.625 -0.625 -0.5 -0.5 -0.625 -0.625 -0.5 -0.5 -0.125 -0.125 0.0 0.0 -0.625 -0.625 -0.5 -0.5 -0.625 -0.625 -0.5 -0.5 0.875 0.875 1.0 1.0 0.375 0.375 0.5 0.5 0.375 0.375 0.5 0.5 1.0 1.0 1.0 1.0 1.0 1.0 1.0 1.0 1.0 1.0 1.0 1.0 1.0 1.0 1.0 1.0 1.0 1.0 1.0 1.0 1.0 1.0 1.0 1.0 1.0 1.0 1.0 1.0 1.0 1.0 1.0 1.0 1.0 1.0 1.0 1.0 0.125 0.125 0.0 0.0 0.625 0.625 0.5 0.5 0.625 0.625 0.5 0.5 0.125 0.125 0.0 0.0 0.625 0.625 0.5 0.5 0.625 0.625 0.5 0.5 -0.875 -0.875 -1.0 -1.0 -0.375 -0.375 -0.5 -0.5 -0.375 -0.375 -0.5 -0.5 0.375 0.5 0.5 0.375 0.375 0.5 0.5 0.375 0.875 1.0 1.0 0.875 -0.625 -0.5 -0.5 -0.625 -0.625 -0.5 -0.5 -0.625 -0.125 0.0 0.0 -0.125 -0.625 -0.5 -0.5 -0.625 -0.625 -0.5 -0.5 -0.625 -0.125 0.0 0.0 -0.125 -0.375 -0.5 -0.5 -0.375 -0.375 -0.5 -0.5 -0.375 -0.875 -1.0 -1.0 -0.875 0.625 0.5 0.5 0.625 0.625 0.5 0.625 0.125 0.0 0.125 0.625 0.5 0.625 0.5 0.5 0.625 0.125 0.0 0.0 0.125 -0.375 -0.5 -0.5 -0.375 -0.375 -0.5 -0.5 -0.375 -0.875 -1.0 -0.875 0.375 0.5 0.5 0.375 0.375 0.5 0.5 0.375 0.875 1.0 1.0 0.875 -0.875 -0.875 -1.0 -1.0 -0.375 -0.375 -0.5 -0.5 -0.375 -0.5 1.0 1.0 1.0 1.0 1.0 1.0 1.0 1.0 1.0 1.0 1.0 1.0 0.875 0.875 1.0 1.0 0.375 0.375 0.5 0.5 0.375 0.375 0.5 0.5 -1.0 -1.0 -1.0 -1.0 -1.0 -1.0 -1.0 -1.0 -1.0 -1.0 -1.0 -1.0 -1.0 -1.0 -1.0 -1.0 -1.0 -1.0 -1.0 -1.0 -1.0 -1.0 -1.0 -1.0 -1.0 -1.0 -1.0 -1.0 -1.0 -1.0 -1.0 -1.0 -1.0 -1.0 -1.0 -1.0 -1.0 -1.0 -1.0 -1.0 -1.0 -1.0 -1.0 -1.0 -1.0 -1.0 0.375 0.375 0.5 0.5 0.125 0.125 0.25 0.25 0.125 0.125 0.25 0.25 0.375 0.375 0.5 0.5 0.125 0.125 0.25 0.25 0.125 0.125 0.25 0.25 0.875 0.875 1.0 1.0 0.625 0.625 0.75 0.75 0.625 0.625 0.75 0.75 1.0 1.0 1.0 1.0 1.0 1.0 1.0 1.0 1.0 1.0 1.0 1.0 1.0 1.0 1.0 1.0 1.0 1.0 1.0 1.0 1.0 1.0 1.0 1.0 1.0 1.0 1.0 1.0 1.0 1.0 1.0 1.0 1.0 1.0 1.0 1.0 -0.375 -0.375 -0.5 -0.5 -0.125 -0.125 -0.25 -0.25 -0.125 -0.125 -0.25 -0.25 -0.375 -0.375 -0.5 -0.5 -0.125 -0.125 -0.25 -0.25 -0.125 -0.125 -0.25 -0.25 -0.875 -0.875 -1.0 -1.0 -0.625 -0.625 -0.75 -0.75 -0.625 -0.625 -0.75 -0.75 0.625 0.75 0.75 0.625 0.625 0.75 0.75 0.625 0.875 1.0 1.0 0.875 0.125 0.25 0.25 0.125 0.125 0.25 0.25 0.125 0.375 0.5 0.5 0.375 0.125 0.25 0.25 0.125 0.125 0.25 0.25 0.125 0.375 0.5 0.5 0.375 -0.625 -0.75 -0.625 -0.625 -0.75 -0.75 -0.625 -0.875 -1.0 -0.875 -0.125 -0.25 -0.25 -0.125 -0.125 -0.25 -0.25 -0.125 -0.375 -0.5 -0.5 -0.375 -0.125 -0.25 -0.125 -0.25 -0.25 -0.125 -0.375 -0.5 -0.5 -0.375 0.375 0.25 0.25 0.375 0.375 0.25 0.25 0.375 0.125 0.0 0.0 0.125 0.875 0.75 0.75 0.875 0.875 0.75 0.75 0.875 0.625 0.5 0.5 0.625 0.875 0.75 0.75 0.875 0.875 0.75 0.75 0.875 0.625 0.5 0.5 0.625 0.375 0.25 0.25 0.375 0.375 0.25 0.25 0.375 0.125 0.0 0.0 0.125 0.875 0.75 0.75 0.875 0.875 0.75 0.75 0.875 0.625 0.5 0.5 0.625 0.875 0.75 0.75 0.875 0.875 0.75 0.75 0.875 0.625 0.5 0.5 0.625 -0.625 -0.75 -0.75 -0.625 -0.75 -0.75 -0.625 -0.875 -1.0 -0.875 -0.125 -0.25 -0.125 -0.125 -0.25 -0.25 -0.125 -0.375 -0.5 -0.5 -0.375 -0.125 -0.14822064340114594 -0.25 -0.25 -0.125 -0.125 -0.25 -0.25 -0.125 -0.375 -0.5 -0.5 -0.375 -0.375 -0.25 -0.25 -0.375 -0.375 -0.25 -0.25 -0.375 -0.125 0.0 0.0 -0.125 -0.875 -0.75 -0.75 -0.875 -0.875 -0.75 -0.75 -0.875 -0.625 -0.5 -0.5 -0.625 -0.875 -0.75 -0.75 -0.875 -0.875 -0.75 -0.75 -0.875 -0.625 -0.5 -0.5 -0.625 -0.375 -0.25 -0.25 -0.375 -0.375 -0.25 -0.25 -0.375 -0.125 0.0 0.0 -0.125 -0.875 -0.75 -0.75 -0.875 -0.875 -0.75 -0.75 -0.875 -0.625 -0.5 -0.5 -0.625 -0.875 -0.75 -0.75 -0.875 -0.875 -0.75 -0.75 -0.875 -0.625 -0.5 -0.5 -0.625 0.625 0.75 0.75 0.625 0.625 0.75 0.75 0.625 0.875 1.0 1.0 0.875 0.125 0.25 0.25 0.125 0.125 0.25 0.25 0.125 0.375 0.5 0.5 0.375 0.125 0.25 0.25 0.125 0.125 0.25 0.25 0.125 0.375 0.5 0.5 0.375 -0.375 -0.375 -0.5 -0.5 -0.125 -0.125 -0.25 -0.25 -0.125 -0.125 -0.25 -0.25 -0.375 -0.375 -0.5 -0.5 -0.125 -0.125 -0.25 -0.25 -0.125 -0.125 -0.25 -0.25 -0.875 -0.875 -1.0 -1.0 -0.625 -0.625 -0.75 -0.75 -0.625 -0.625 -0.75 -0.75 0.625 0.625 0.5 0.5 0.875 0.875 0.75 0.75 0.875 0.875 0.75 0.75 0.625 0.625 0.5 0.5 0.875 0.875 0.75 0.75 0.875 0.875 0.75 0.75 0.125 0.125 0.0 0.0 0.375 0.375 0.25 0.25 0.375 0.375 0.25 0.25 0.625 0.625 0.5 0.5 0.875 0.875 0.75 0.75 0.875 0.75 0.625 0.625 0.5 0.5 0.875 0.875 0.75 0.75 0.875 0.875 0.75 0.75 0.125 0.125 0.0 0.0 0.375 0.375 0.25 0.25 0.375 0.375 0.25 0.25 1.0 1.0 1.0 1.0 1.0 1.0 1.0 1.0 1.0 1.0 1.0 1.0 1.0 1.0 1.0 1.0 1.0 1.0 1.0 1.0 1.0 1.0 1.0 1.0 1.0 1.0 1.0 1.0 1.0 1.0 1.0 1.0 1.0 1.0 1.0 1.0 1.0 1.0 1.0 1.0 1.0 1.0 1.0 1.0 1.0 1.0 1.0 1.0 1.0 1.0 1.0 1.0 1.0 1.0 1.0 1.0 1.0 1.0 1.0 1.0 1.0 1.0 1.0 1.0 1.0 1.0 1.0 1.0 1.0 1.0 1.0 1.0 1.0 1.0 1.0 1.0 1.0 1.0 1.0 1.0 1.0 1.0 1.0 1.0 1.0 1.0 1.0 1.0 1.0 1.0 1.0 1.0 1.0 1.0 1.0 1.0 1.0 1.0 1.0 1.0 1.0 1.0 1.0 1.0 1.0 1.0 1.0 1.0 0.375 0.375 0.5 0.5 0.125 0.125 0.25 0.25 0.125 0.125 0.25 0.25 0.375 0.375 0.5 0.5 0.125 0.125 0.25 0.25 0.125 0.125 0.25 0.25 0.875 0.875 1.0 1.0 0.625 0.625 0.75 0.75 0.625 0.625 0.75 0.75 -0.625 -0.625 -0.5 -0.5 -0.875 -0.875 -0.75 -0.75 -0.875 -0.875 -0.75 -0.75 -0.625 -0.625 -0.5 -0.5 -0.875 -0.875 -0.75 -0.75 -0.875 -0.875 -0.75 -0.75 -0.125 -0.125 0.0 0.0 -0.375 -0.375 -0.25 -0.25 -0.375 -0.375 -0.25 -0.25 -0.625 -0.625 -0.5 -0.5 -0.875 -0.875 -0.75 -0.75 -0.875 -0.875 -0.75 -0.75 -0.625 -0.625 -0.5 -0.5 -0.875 -0.875 -0.75 -0.75 -0.875 -0.875 -0.75 -0.75 -0.125 -0.125 0.0 0.0 -0.375 -0.375 -0.25 -0.25 -0.375 -0.375 -0.25 -0.25 -1.0 -1.0 -1.0 -1.0 -1.0 -1.0 -1.0 -1.0 -1.0 -1.0 -1.0 -1.0 -1.0 -1.0 -1.0 -1.0 -1.0 -1.0 -1.0 -1.0 -1.0 -1.0 -1.0 -1.0 -1.0 -1.0 -1.0 -1.0 -1.0 -1.0 -1.0 -1.0 -1.0 -1.0 -1.0 -1.0 -1.0 -1.0 -1.0 -1.0 -1.0 -1.0 -1.0 -1.0 -1.0 -1.0 -1.0 -1.0 -1.0 -1.0 -1.0 -1.0 -1.0 -1.0 -1.0 -1.0 -1.0 -1.0 -1.0 -1.0 -1.0 -1.0 -1.0 -1.0 -1.0 -1.0 -1.0 -1.0 -1.0 -1.0 -1.0 -1.0 -1.0 -1.0 -1.0 -1.0 -1.0 -1.0 -1.0 -1.0 -1.0 -1.0 -1.0 -1.0 -1.0 -1.0 -1.0 -1.0 -1.0 -1.0 -1.0 -1.0 -1.0 -1.0 -1.0 -1.0 -1.0 -1.0 -1.0 -1.0 -1.0 -1.0 -1.0 -1.0 -1.0 -1.0 -1.0 -1.0 -1.0 -1.0 -1.0 -1.0 -1.0 -1.0 -1.0 -1.0 -1.0 -1.0 -1.0 -1.0 -1.0 -1.0 -1.0 -1.0 -1.0 -1.0 -1.0 -1.0 -1.0 -1.0 -1.0 -1.0 -1.0 -1.0 -1.0 -1.0 -1.0 -1.0 -1.0 -1.0 -1.0 -0.125 -0.125 0.0 0.0 -0.375 -0.375 -0.25 -0.25 -0.375 -0.375 -0.25 -0.25 -0.125 -0.125 0.0 0.0 -0.375 -0.375 -0.25 -0.25 -0.375 -0.375 -0.25 -0.25 0.875 0.875 1.0 1.0 0.625 0.625 0.75 0.75 0.625 0.625 0.75 0.75 1.0 1.0 1.0 1.0 1.0 1.0 1.0 1.0 1.0 1.0 1.0 1.0 1.0 1.0 1.0 1.0 1.0 1.0 1.0 1.0 1.0 1.0 1.0 1.0 1.0 1.0 1.0 1.0 1.0 1.0 1.0 1.0 1.0 1.0 1.0 1.0 0.125 0.125 0.0 0.0 0.375 0.375 0.25 0.25 0.375 0.375 0.25 0.25 0.125 0.125 0.0 0.0 0.375 0.375 0.25 0.25 0.375 0.375 0.25 0.25 -0.875 -0.875 -1.0 -1.0 -0.625 -0.625 -0.75 -0.75 -0.625 -0.625 -0.75 -0.75 0.625 0.75 0.75 0.625 0.625 0.75 0.75 0.625 0.875 1.0 1.0 0.875 -0.375 -0.25 -0.25 -0.375 -0.375 -0.25 -0.25 -0.375 -0.125 0.0 0.0 -0.125 -0.375 -0.25 -0.25 -0.375 -0.375 -0.25 -0.25 -0.375 -0.125 0.0 0.0 -0.125 -0.625 -0.75 -0.75 -0.625 -0.625 -0.75 -0.75 -0.625 -0.875 -0.875 0.375 0.25 0.25 0.375 0.375 0.25 0.25 0.375 0.125 0.125 0.0 0.0 0.054278865456581116 0.375 0.25 0.375 0.25 0.25 0.125 0.0 0.0 0.125 -0.625 -0.75 -0.75 -0.625 -0.625 -0.75 -0.75 -0.625 -0.875 -0.875 0.625 0.75 0.75 0.625 0.625 0.75 0.75 0.625 0.875 1.0 1.0 0.875 -0.875 -0.875 -1.0 -1.0 -0.625 -0.625 -0.75 -0.75 -0.625 -0.75 1.0 1.0 1.0 1.0 1.0 1.0 1.0 1.0 1.0 1.0 1.0 1.0 0.875 0.875 1.0 1.0 0.625 0.625 0.75 0.75 0.625 0.625 0.75 0.75 -1.0 -1.0 -1.0 -1.0 -1.0 -1.0 -1.0 -1.0 -1.0 -1.0 -0.75 0.375 0.5 -0.625 -1.0 -1.0 -1.0 -1.0 -1.0 -1.0 -1.0 -1.0 -1.0 -1.0 -1.0 -1.0 -1.0 -1.0 -1.0 -1.0 -1.0 -0.375 -0.25 -0.5 -0.125 0.0 -0.875 -0.75 -0.625 0.625 0.75 0.5 0.875 1.0 0.125 0.25 0.375 -0.25 -0.05567163974046707 -0.125 0.0 0.125 0.04161906614899635 0.0 -0.06817474216222763 0.125 
0.875 0.875 1.0 1.0 1.0 1.0 1.0 1.0 -0.875 -0.875 -1.0 -1.0 -1.0 -1.0 -1.0 -1.0 -0.875 -0.875 -1.0 -1.0 -0.875 -0.875 -0.875 -0.875 -1.0 -1.0 0.125 0.125 0.06904572248458862 0.125 0.125 0.0 0.0 -0.875 -0.875 -1.0 -1.0 0.125 0.125 0.0 0.0 0.125 0.125 0.0 0.0 -1.0 -1.0 -1.0 -1.0 -1.0 -1.0 -1.0 -1.0 -1.0 -1.0 -0.875 -0.875 -1.0 -1.0 0.125 0.125 0.0 0.0 0.125 0.125 0.0 0.0 1.0 1.0 1.0 1.0 1.0 1.0 1.0 1.0 1.0 1.0 1.0 1.0 0.875 0.875 1.0 1.0 -0.125 -0.125 0.0 0.0 -0.125 -0.125 0.0 -0.125 -0.125 0.0 0.0 -0.625 -0.625 -0.5 -0.5 -0.625 -0.625 -0.5 -0.5 -0.125 -0.125 0.0 0.0 -0.625 -0.625 -0.5 -0.5 -0.625 -0.625 -0.5 -0.5 0.875 0.875 1.0 1.0 0.375 0.375 0.5 0.5 0.375 0.375 0.5 0.5 1.0 1.0 1.0 1.0 1.0 1.0 1.0 1.0 1.0 1.0 1.0 1.0 1.0 1.0 1.0 1.0 1.0 1.0 1.0 1.0 1.0 1.0 1.0 1.0 1.0 1.0 1.0 1.0 1.0 1.0 1.0 1.0 1.0 1.0 1.0 1.0 0.125 0.125 0.0 0.0 0.625 0.625 0.5 0.5 0.625 0.625 0.5 0.5 0.125 0.125 0.0 0.0 0.625 0.625 0.5 0.5 0.625 0.625 0.5 0.5 -0.875 -0.875 -1.0 -1.0 -0.375 -0.375 -0.5 -0.5 -0.375 -0.375 -0.5 -0.5 -1.0 -1.0 -1.0 -1.0 -1.0 -1.0 -1.0 -1.0 -1.0 -1.0 -1.0 -1.0 -1.0 -1.0 -1.0 -1.0 -1.0 -1.0 -1.0 -1.0 -1.0 -1.0 -1.0 -1.0 -1.0 -1.0 -1.0 -1.0 -1.0 -1.0 -1.0 -1.0 -1.0 -1.0 -1.0 -1.0 0.125 0.125 0.0 0.0 0.625 0.625 0.5 0.5 0.625 0.625 0.5 0.5 0.125 0.125 0.0 0.0 0.625 0.625 0.5 0.5 0.625 0.625 0.5 0.5 -0.875 -0.875 -1.0 -1.0 -0.375 -0.375 -0.5 -0.5 -0.375 -0.375 -0.5 -0.5 0.125 0.125 0.0 0.0 0.625 0.625 0.5 0.5 0.625 0.625 0.5 0.5 0.125 0.125 0.0 0.0 0.625 0.625 0.5 0.625 0.5 0.5 -0.875 -0.875 -0.375 -0.375 -0.5 -0.5 -0.375 -0.375 -0.5 -0.5 -0.875 -0.875 -1.0 -1.0 -0.375 -0.375 -0.5 -0.5 -0.375 -0.375 -0.5 -0.875 -0.875 -1.0 -1.0 -0.375 -0.375 -0.5 -0.5 -0.375 -0.375 -0.5 -0.5 -1.0 -1.0 -1.0 -1.0 -1.0 -1.0 -1.0 -1.0 -1.0 -1.0 -0.875 -0.875 -1.0 -1.0 -0.375 -0.375 -0.5 -0.5 -0.375 -0.375 -0.5 -0.5 1.0 1.0 1.0 1.0 1.0 1.0 1.0 1.0 1.0 1.0 1.0 1.0 0.875 0.875 1.0 1.0 0.375 0.375 0.5 0.5 0.375 0.375 0.5 0.375 0.375 0.5 0.5 0.125 0.125 0.25 0.25 0.125 0.25 0.25 0.375 0.375 0.5 0.5 0.125 0.125 0.25 0.25 0.125 0.125 0.25 0.25 0.875 0.875 1.0 1.0 0.625 0.625 0.75 0.75 0.625 0.625 0.75 0.75 1.0 1.0 1.0 1.0 1.0 1.0 1.0 1.0 1.0 1.0 1.0 1.0 1.0 1.0 1.0 1.0 1.0 1.0 1.0 1.0 1.0 1.0 1.0 1.0 1.0 1.0 1.0 1.0 1.0 1.0 1.0 1.0 1.0 1.0 1.0 1.0 -0.375 -0.375 -0.5 -0.5 -0.125 -0.125 -0.25 -0.25 -0.125 -0.125 -0.25 -0.25 -0.375 -0.375 -0.5 -0.5 -0.125 -0.125 -0.25 -0.25 -0.125 -0.125 -0.25 -0.25 -0.875 -0.875 -1.0 -1.0 -0.625 -0.625 -0.75 -0.75 -0.625 -0.625 -0.75 -0.75 -1.0 -1.0 -1.0 -1.0 -1.0 -1.0 -1.0 -1.0 -1.0 -1.0 -1.0 -1.0 -1.0 -1.0 -1.0 -1.0 -1.0 -1.0 -1.0 -1.0 -1.0 -1.0 -1.0 -1.0 -1.0 -1.0 -1.0 -1.0 -1.0 -1.0 -1.0 -1.0 -1.0 -1.0 -1.0 -1.0 -0.375 -0.375 -0.5 -0.5 -0.125 -0.125 -0.25 -0.25 -0.125 -0.125 -0.25 -0.25 -0.375 -0.375 -0.5 -0.5 -0.125 -0.125 -0.25 -0.25 -0.125 -0.125 -0.25 -0.25 -0.875 -0.875 -1.0 -1.0 -0.625 -0.625 -0.75 -0.75 -0.625 -0.625 -0.75 -0.75 -0.375 -0.375 -0.5 -0.125 -0.125 -0.25 -0.25 -0.125 -0.25 -0.25 -0.375 -0.375 -0.5 -0.5 -0.125 -0.125 -0.25 -0.25 -0.125 -0.125 -0.25 -0.25 -0.875 -0.875 -0.625 -0.625 -0.75 -0.75 -0.625 -0.625 -0.75 -0.75 -0.375 -0.375 -0.5 -0.5 -0.125 -0.125 -0.25 -0.25 -0.125 -0.125 -0.25 -0.25 -0.375 -0.375 -0.5 -0.5 -0.125 -0.125 -0.25 -0.25 -0.125 -0.125 -0.25 -0.25 -0.875 -0.875 -1.0 -1.0 -0.625 -0.625 -0.75 -0.75 -0.625 -0.625 -0.75 -0.75 0.625 0.625 0.5 0.5 0.875 0.875 0.75 0.75 0.875 0.875 0.75 0.75 0.625 0.625 0.5 0.5 0.875 0.875 0.75 0.75 0.875 0.875 0.75 0.75 0.125 0.125 0.0 0.0 0.375 0.375 0.25 0.25 0.375 0.375 0.25 0.25 0.625 0.625 0.5 0.875 0.875 0.75 0.75 0.875 0.75 0.75 0.625 0.625 0.5 0.875 0.875 0.75 0.75 0.875 0.875 0.75 0.75 0.0640149936079979 0.125 0.125 0.0 0.0 0.375 0.375 0.25 0.25 0.375 0.375 0.25 0.25 -0.375 -0.375 -0.5 -0.5 -0.125 -0.125 -0.25 -0.25 -0.125 -0.125 -0.25 -0.25 -0.375 -0.375 -0.5 -0.5 -0.125 -0.125 -0.25 -0.25 -0.125 -0.125 -0.25 -0.25 -0.875 -0.875 -1.0 -1.0 -0.625 -0.625 -0.75 -0.75 -0.625 -0.625 -0.75 -0.75 0.625 0.625 0.5 0.5 0.875 0.875 0.75 0.75 0.875 0.875 0.75 0.75 0.625 0.625 0.5 0.5 0.875 0.875 0.75 0.75 0.875 0.875 0.75 0.75 0.125 0.125 0.0 0.0 0.375 0.375 0.25 0.25 0.375 0.375 0.25 0.25 0.625 0.625 0.5 0.5 0.875 0.875 0.75 0.75 0.875 0.875 0.75 0.75 0.625 0.625 0.5 0.5 0.875 0.875 0.75 0.75 0.875 0.875 0.75 0.75 0.125 0.125 0.0 0.0 0.375 0.375 0.25 0.25 0.375 0.375 0.25 0.25 -1.0 -1.0 -1.0 -1.0 -1.0 -1.0 -1.0 -1.0 -1.0 -1.0 -1.0 -1.0 -1.0 -1.0 -1.0 -1.0 -1.0 -1.0 -1.0 -1.0 -1.0 -1.0 -1.0 -1.0 -1.0 -1.0 -1.0 -1.0 -1.0 -1.0 -1.0 -1.0 -1.0 -1.0 -1.0 -1.0 -1.0 -1.0 -1.0 -1.0 -1.0 -1.0 -1.0 -1.0 -1.0 -1.0 -1.0 -1.0 -1.0 -1.0 -1.0 -1.0 -1.0 -1.0 -1.0 -1.0 -1.0 -1.0 -1.0 -1.0 -1.0 -1.0 -1.0 -1.0 -1.0 -1.0 -1.0 -1.0 -1.0 -1.0 -1.0 -1.0 -1.0 -1.0 -1.0 -1.0 -1.0 -1.0 -1.0 -1.0 -1.0 -1.0 -1.0 -1.0 -1.0 -1.0 -1.0 -1.0 -1.0 -1.0 -1.0 -1.0 -1.0 -1.0 -1.0 -1.0 -1.0 -1.0 -1.0 -1.0 -1.0 -1.0 -1.0 -1.0 -1.0 -1.0 -0.375 -0.375 -0.5 -0.5 -0.125 -0.125 -0.25 -0.25 -0.125 -0.125 -0.25 -0.25 -0.375 -0.375 -0.5 -0.5 -0.125 -0.125 -0.25 -0.25 -0.125 -0.125 -0.25 -0.25 -0.875 -0.875 -1.0 -1.0 -0.625 -0.625 -0.75 -0.75 -0.625 -0.625 -0.75 -0.75 0.625 0.625 0.5 0.5 0.875 0.875 0.75 0.75 0.875 0.875 0.75 0.75 0.625 0.625 0.5 0.5 0.875 0.875 0.75 0.75 0.875 0.875 0.75 0.75 0.125 0.125 0.0 0.0 0.375 0.375 0.25 0.25 0.375 0.375 0.25 0.25 0.625 0.625 0.5 0.5 0.875 0.875 0.75 0.75 0.875 0.875 0.75 0.75 0.625 0.625 0.5 0.5 0.875 0.875 0.75 0.75 0.875 0.875 0.75 0.75 0.125 0.125 0.0 0.0 0.375 0.375 0.25 0.25 0.375 0.375 0.25 0.25 1.0 1.0 1.0 1.0 1.0 1.0 1.0 1.0 1.0 1.0 1.0 1.0 1.0 1.0 1.0 1.0 1.0 1.0 1.0 1.0 1.0 1.0 1.0 1.0 1.0 1.0 1.0 1.0 1.0 1.0 1.0 1.0 1.0 1.0 1.0 1.0 1.0 1.0 1.0 1.0 1.0 1.0 1.0 1.0 1.0 1.0 1.0 1.0 1.0 1.0 1.0 1.0 1.0 1.0 1.0 1.0 1.0 1.0 1.0 1.0 1.0 1.0 1.0 1.0 1.0 1.0 1.0 1.0 1.0 1.0 1.0 1.0 1.0 1.0 1.0 1.0 1.0 1.0 1.0 1.0 1.0 1.0 1.0 1.0 1.0 1.0 1.0 1.0 1.0 1.0 1.0 1.0 1.0 1.0 1.0 1.0 1.0 1.0 1.0 1.0 1.0 1.0 1.0 1.0 1.0 1.0 1.0 1.0 0.375 0.375 0.5 0.5 0.125 0.125 0.25 0.25 0.125 0.125 0.25 0.25 0.375 0.375 0.5 0.5 0.125 0.125 0.25 0.25 0.125 0.125 0.25 0.25 0.875 0.875 1.0 1.0 0.625 0.625 0.75 0.75 0.625 0.625 0.75 0.75 -0.625 -0.625 -0.5 -0.5 -0.875 -0.875 -0.75 -0.75 -0.875 -0.875 -0.75 -0.75 -0.625 -0.625 -0.5 -0.5 -0.875 -0.875 -0.75 -0.75 -0.875 -0.875 -0.75 -0.75 -0.125 -0.125 0.0 0.0 -0.375 -0.375 -0.25 -0.25 -0.375 -0.375 -0.25 -0.25 -0.625 -0.625 -0.5 -0.5 -0.875 -0.875 -0.75 -0.75 -0.875 -0.75 -0.75 -0.625 -0.625 -0.5 -0.5 -0.875 -0.875 -0.75 -0.75 -0.875 -0.875 -0.75 -0.75 -0.125 -0.125 0.0 0.0 -0.375 -0.375 -0.25 -0.25 -0.375 -0.375 -0.25 -0.25 -0.125 -0.125 0.0 0.0 -0.375 -0.375 -0.25 -0.25 -0.375 -0.25 -0.125 -0.125 0.0 0.0 -0.375 -0.375 -0.25 -0.25 -0.375 -0.375 -0.25 -0.25 0.875 0.875 1.0 1.0 0.625 0.625 0.75 0.75 0.625 0.625 0.75 0.75 1.0 1.0 1.0 1.0 1.0 1.0 1.0 1.0 1.0 1.0 1.0 1.0 1.0 1.0 1.0 1.0 1.0 1.0 1.0 1.0 1.0 1.0 1.0 1.0 1.0 1.0 1.0 1.0 1.0 1.0 1.0 1.0 1.0 1.0 1.0 1.0 0.125 0.125 0.0 0.0 0.375 0.375 0.25 0.25 0.375 0.375 0.25 0.25 0.125 0.125 0.0 0.0 0.375 0.375 0.25 0.25 0.375 0.375 0.25 0.25 -0.875 -0.875 -1.0 -1.0 -0.625 -0.625 -0.75 -0.75 -0.625 -0.625 -0.75 -0.75 -1.0 -1.0 -1.0 -1.0 -1.0 -1.0 -1.0 -1.0 -1.0 -1.0 -1.0 -1.0 -1.0 -1.0 -1.0 -1.0 -1.0 -1.0 -1.0 -1.0 -1.0 -1.0 -1.0 -1.0 -1.0 -1.0 -1.0 -1.0 -1.0 -1.0 -1.0 -1.0 -1.0 -1.0 -1.0 -1.0 0.125 0.125 0.0 0.0 0.375 0.375 0.25 0.25 0.375 0.375 0.25 0.25 0.125 0.125 0.0 0.0 0.375 0.375 0.25 0.25 0.375 0.375 0.25 0.25 -0.875 -0.875 -1.0 -1.0 -0.625 -0.625 -0.75 -0.75 -0.625 -0.625 -0.75 -0.75 0.125 0.125 0.0 0.0 0.375 0.375 0.25 0.25 0.375 0.25 0.125 0.125 0.0 0.0 0.375 0.375 0.25 0.25 0.25 0.375 0.375 0.27161067724227905 0.25 -0.875 -0.875 -0.625 -0.625 -0.75 -0.625 -0.625 -0.75 -0.75 -0.875 -0.875 -1.0 -1.0 -0.625 -0.625 -0.75 -0.75 -0.625 -0.75 -0.875 -0.875 -1.0 -1.0 -0.625 -0.625 -0.75 -0.75 -0.625 -0.625 -0.75 -0.75 -1.0 -1.0 -1.0 -1.0 -1.0 -1.0 -1.0 -1.0 -1.0 -1.0 -0.875 -0.875 -1.0 -1.0 -0.625 -0.625 -0.75 -0.75 -0.625 -0.625 -0.75 -0.75 1.0 1.0 1.0 1.0 1.0 1.0 1.0 1.0 1.0 1.0 1.0 1.0 0.875 0.875 1.0 1.0 0.625 0.625 0.75 0.75 0.625 0.75 -0.5 -0.75 0.5 0.5 -0.375 -0.25 -0.5 -0.125 0.0 -0.875 -0.75 -1.0 -0.625 0.625 0.75 0.5 0.875 1.0 0.125 0.25 0.375 1.0 1.0 1.0 1.0 1.0 1.0 1.0 1.0 1.0 1.0 1.0 1.0 1.0 1.0 1.0 1.0 0.5 0.25 0.17639929056167603 0.625 0.0 0.0 -0.018412195146083832 0.0 0.17113159596920013 