#
TITLE=""
VARIABLES="X", "Y", "Z", "T", "Hw", "Hi", "HTC", "Beta", "TauX", "TauY", "TauZ"
ZONE T="ZONE 1"
NODES=1922
ELEMENTS=3840
DATAPACKING=BLOCK
ZONETYPE=FETRIANGLE
VARLOCATION=([4-11]=CELLCENTERED)
2.1606683731079102e-07 1.5273690223693848e-07 0.06897494941949844 0.054193299263715744 5.960464477539063e-08 2.9802322387695312e-08 0.08110586553812027 0.09012000262737274 6.705522537231445e-08 1.4156103134155273e-07 0.054193224757909775 0.03732895478606224 0.0 2.9802322387695312e-08 0.09011997282505035 0.09567085653543472 1.4901161193847656e-08 4.0978193283081055e-08 0.03732892870903015 0.019030123949050903 0.0 0.0 0.09567085653543472 0.09754516184329987 1.4901161193847656e-08 7.450580596923828e-09 0.019030123949050903 0.0 7.450580596923828e-09 0.019030116498470306 0.0 0.0 0.09754516184329987 0.09567085653543472 6.705522537231445e-08 4.0978193283081055e-08 0.019030150026082993 0.03732895478606224 5.960464477539063e-08 2.9802322387695312e-08 0.09567088633775711 0.09012000262737274 0.0 3.3527612686157227e-08 0.037328921258449554 0.05419319123029709 0.0 2.9802322387695312e-08 0.09011997282505035 0.08110583573579788 8.940696716308594e-08 4.470348358154297e-08 0.05419323593378067 0.06897488981485367 8.940696716308594e-08 4.470348358154297e-08 0.08110588043928146 0.06897488981485367 0.0 4.470348358154297e-08 0.06897484511137009 0.08110583573579788 0.13794969022274017 0.12316803634166718 0.17527860403060913 0.20427387952804565 0.13794969022274017 0.15008068084716797 0.22806966304779053 0.20427387952804565 0.16221167147159576 0.15008068084716797 0.21640485525131226 0.24020063877105713 0.10838638246059418 0.12316803634166718 0.18949222564697266 0.16049695014953613 0.1802399456501007 0.17122581601142883 0.2492147833108902 0.26689666509628296 0.07465784251689911 0.09152211248874664 0.1436326801776886 0.11055222898721695 0.19134171307086945 0.18579083681106567 0.27244752645492554 0.28333598375320435 0.03806023299694061 0.05635903775691986 0.0922534242272377 0.056359030306339264 0.19509032368659973 0.19321602582931519 0.2852103114128113 0.2888868749141693 0.03806023299694061 0.019030116498470306 0.056359030306339264 0.03732891380786896 0.19134171307086945 0.19321602582931519 0.28701257705688477 0.28333598375320435 0.07465784251689911 0.05635903775691986 0.07465783506631851 0.11055222898721695 0.1802399456501007 0.18579083681106567 0.27778512239456177 0.26689666509628296 0.10838638246059418 0.09152211248874664 0.1274164915084839 0.16049695014953613 0.16221167147159576 0.17122581601142883 0.2578825056552887 0.24020063877105713 0.3826834261417389 0.37900686264038086 0.46378928422927856 0.46912682056427 0.07465782761573792 0.03732891380786896 0.09152209758758545 0.05419318377971649 0.37533026933670044 0.37900686264038086 0.465450257062912 0.46011269092559814 0.1464466154575348 0.11055222153663635 0.1274164915084839 0.17952707409858704 0.3535533547401428 0.36444181203842163 0.44922423362731934 0.4334166347980499 0.21260753273963928 0.17952707409858704 0.21260753273963928 0.2606329023838043 0.3181896209716797 0.33587148785591125 0.41573476791381836 0.39006465673446655 0.27059805393218994 0.2416027933359146 0.28962814807891846 0.33172276616096497 0.27059805393218994 0.2943938374519348 0.3662688732147217 0.33172276616096497 0.3181896209716797 0.2943938374519348 0.35551854968070984 0.39006465673446655 0.21260753273963928 0.2416027933359146 0.30272752046585083 0.2606329023838043 0.3535533547401428 0.33587148785591125 0.4077465236186981 0.4334166347980499 0.1464466154575348 0.17952707409858704 0.22755244374275208 0.17952707409858704 0.37533026933670044 0.36444181203842163 0.44430509209632874 0.46011269092559814 0.07465782761573792 0.11055222153663635 0.1436326801776886 0.09152209758758545 0.39284747838974 0.4273935854434967 0.4903925955295563 0.44642373919487 0.4619396924972534 0.4273935854434967 0.4809698462486267 0.524938702583313 0.30865827202796936 0.35075289011001587 0.4043291211128235 0.3507528603076935 0.513279914855957 0.4876098036766052 0.5506088137626648 0.5832806825637817 0.21260753273963928 0.2606329023838043 0.30272749066352844 0.2416027933359146 0.5448951125144958 0.5290875434875488 0.5990882515907288 0.619207501411438 0.10838636755943298 0.16049695014953613 0.18949221074581146 0.12316802144050598 0.5555702447891235 0.5502326488494873 0.6245450973510742 0.6313384771347046 0.10838636755943298 0.05419318377971649 0.12316802144050598 0.06897483766078949 0.5448951125144958 0.5502326488494873 0.6260009407997131 0.619207501411438 0.21260753273963928 0.16049695014953613 0.17527860403060913 0.2416027933359146 0.513279914855957 0.5290875434875488 0.6033998727798462 0.5832806825637817 0.30865827202796936 0.2606329023838043 0.28962814807891846 0.3507528603076935 0.4619396924972534 0.4876098036766052 0.5576105117797852 0.524938702583313 0.39284747838974 0.35075289011001587 0.39284747838974 0.44642373919487 0.08110582828521729 0.6935198903083801 0.7003133296966553 0.762494683265686 0.7545064687728882 0.27059805393218994 0.20427386462688446 0.21640485525131226 0.2943938374519348 0.6532813906669617 0.6734006404876709 0.7343872785568237 0.7107294797897339 0.3928474485874176 0.3317227363586426 0.35551854968070984 0.4273935854434967 0.5879377126693726 0.6206095218658447 0.6780576705932617 0.639639675617218 0.5 0.4464237093925476 0.4809698462486267 0.543968915939331 0.5 0.5439688563346863 0.5956708192825317 0.543968915939331 0.5879377126693726 0.5439688563346863 0.5879377126693726 0.639639675617218 0.3928474485874176 0.4464237093925476 0.49039262533187866 0.4273935854434967 0.6532813906669617 0.6206095218658447 0.672311544418335 0.7107294797897339 0.27059805393218994 0.3317227363586426 0.3662688732147217 0.2943938374519348 0.6935198903083801 0.6734006404876709 0.7308487892150879 0.7545064687728882 0.13794967532157898 0.20427386462688446 0.22806966304779053 0.15008066594600677 0.7071067690849304 0.7003133296966553 0.7612999677658081 0.769288182258606 0.13794967532157898 0.06897483766078949 0.15008066594600677 0.4619397222995758 0.5249387621879578 0.5576105713844299 0.4876098036766052 0.7681776285171509 0.7297596335411072 0.7681776285171509 0.8108654618263245 0.3181896507740021 0.39006468653678894 0.41573476791381836 0.33587151765823364 0.815493106842041 0.791835367679596 0.8345232009887695 0.8608102202415466 0.16221165657043457 0.24020065367221832 0.2578825056552887 0.17122578620910645 0.8314695358276367 0.8234813213348389 0.8687984347343445 0.8776744604110718 0.16221165657043457 0.08110582828521729 0.17122578620910645 0.09011995792388916 0.815493106842041 0.8234813213348389 0.8696862459182739 0.8608102202415466 0.3181896507740021 0.24020065367221832 0.2492147833108902 0.33587151765823364 0.7681776285171509 0.791835367679596 0.8371524810791016 0.8108654618263245 0.4619397222995758 0.39006468653678894 0.4077465534210205 0.4876098036766052 0.6913416385650635 0.7297596335411072 0.7724474668502808 0.7297596335411072 0.5879377722740173 0.5249387621879578 0.5506088733673096 0.6206096410751343 0.5879377722740173 0.6396397352218628 0.6780576705932617 0.6206096410751343 0.6913416385650635 0.6396397352218628 0.672311544418335 0.7297596335411072 0.3535533547401428 0.26689663529396057 0.27244752645492554 0.36444181203842163 0.853553295135498 0.8798403143882751 0.907746434211731 0.8798403143882751 0.513279914855957 0.4334166347980499 0.44430506229400635 0.529087483882904 0.7681776285171509 0.8108654618263245 0.8371524810791016 0.7918353080749512 0.6532814502716064 0.5832806825637817 0.5990882515907288 0.6734006404876709 0.6532814502716064 0.7107295393943787 0.734387218952179 0.6734006404876709 0.7681776285171509 0.7107295393943787 0.7308487892150879 0.7918353080749512 0.513279914855957 0.5832806825637817 0.6033998727798462 0.529087483882904 0.853553295135498 0.8108654618263245 0.8345231413841248 0.8798403143882751 0.3535533547401428 0.4334166347980499 0.44922420382499695 0.36444181203842163 0.9061273336410522 0.8798403143882751 0.9061273336410522 0.9340335130691528 0.18023991584777832 0.26689663529396057 0.277785062789917 0.1857907921075821 0.9238793849945068 0.9150033593177795 0.9429094791412354 0.9523322582244873 0.18023991584777832 0.09011995792388916 0.1857907921075821 0.09567083418369293 0.9061273336410522 0.9150033593177795 0.9434561729431152 0.9340335130691528 0.9061273336410522 0.8608101606369019 0.8687983751296997 0.9150034189224243 0.37533023953437805 0.46011263132095337 0.4654501676559448 0.3790068030357361 0.9619396328926086 0.9340335130691528 0.9429095387458801 0.9713623523712158 0.19134166836738586 0.28333595395088196 0.28701251745224 0.1932159662246704 0.980785071849823 0.9713623523712158 0.9807851314544678 0.9903923869132996 0.19134166836738586 0.09567083418369293 0.1932159662246704 0.09754513204097748 0.9619396328926086 0.9713623523712158 0.9809696674346924 0.9713623523712158 0.37533023953437805 0.28333595395088196 0.2852102518081665 0.3790068030357361 0.9061273336410522 0.9340335130691528 0.94345623254776 0.9150034189224243 0.5448950529098511 0.46011263132095337 0.4637892246246338 0.5502325892448425 0.8154929876327515 0.8608101606369019 0.8696862459182739 0.8234812021255493 0.6935198903083801 0.619207501411438 0.6245449781417847 0.7003133296966553 0.6935198903083801 0.7545064687728882 0.762494683265686 0.7003133296966553 0.8154929876327515 0.7545064687728882 0.7612998485565186 0.8234812021255493 0.5448950529098511 0.619207501411438 0.6260008811950684 0.5502325892448425 0.9238794445991516 0.9523322582244873 0.9429094791412354 0.9150034189224243 0.555570125579834 0.46912676095962524 0.4654501676559448 0.5502325296401978 0.8314694166183472 0.8776744604110718 0.8687983751296997 0.8234812021255493 0.7071067094802856 0.6313384175300598 0.6260008811950684 0.7003132700920105 0.7071067094802856 0.7692880630493164 0.7612998485565186 0.7003132700920105 0.8314694166183472 0.7692880630493164 0.7624946236610413 0.8234812021255493 0.555570125579834 0.6313384175300598 0.6245449781417847 0.5502325296401978 0.9238794445991516 0.8776744604110718 0.8696861863136292 0.9150034189224243 0.3826833963394165 0.46912676095962524 0.4637891948223114 0.3790068030357361 0.9807851314544678 0.9523322582244873 0.94345623254776 0.9713623523712158 0.19509026408195496 0.2888868451118469 0.2852102518081665 0.1932159662246704 0.9999997019767761 0.9903924465179443 0.9809696674346924 0.9903923273086548 0.19509026408195496 0.09754513204097748 0.1932159662246704 0.09567082673311234 0.9807851314544678 0.9903924465179443 0.9807850122451782 0.9713623523712158 0.3826833963394165 0.2888868451118469 0.28701251745224 0.3790068030357361 0.37533023953437805 0.46011263132095337 0.4443050026893616 0.36444181203842163 0.9619395732879639 0.9340334534645081 0.907746434211731 0.9340333938598633 0.19134165346622467 0.28333595395088196 0.27244749665260315 0.1857907772064209 0.9807848930358887 0.9713622331619263 0.9434560537338257 0.9523320198059082 0.19134165346622467 0.09567082673311234 0.1857907772064209 0.09011994302272797 0.9619395732879639 0.9713622331619263 0.9429093599319458 0.9340333938598633 0.37533023953437805 0.28333595395088196 0.277785062789917 0.36444181203842163 0.9061273336410522 0.9340334534645081 0.9061272740364075 0.8798403143882751 0.5448949933052063 0.46011263132095337 0.44922417402267456 0.5290874242782593 0.8154929280281067 0.8608101606369019 0.83452308177948 0.7918351888656616 0.6935198307037354 0.6192073822021484 0.6033998131752014 0.6734006404876709 0.6935198307037354 0.7545063495635986 0.7308486700057983 0.6734006404876709 0.8154929280281067 0.7545063495635986 0.7343871593475342 0.7918351888656616 0.5448949933052063 0.6192073822021484 0.599088191986084 0.5290874242782593 0.9061273336410522 0.8608101606369019 0.8371524214744568 0.8798403143882751 0.5132797956466675 0.43341657519340515 0.4157347083091736 0.4876096844673157 0.7681775093078613 0.8108654022216797 0.7681775689125061 0.7297594547271729 0.6532813906669617 0.5832805633544922 0.5576105117797852 0.6206095218658447 0.6532813906669617 0.7107294797897339 0.6723114252090454 0.6206095218658447 0.7681775093078613 0.7107294797897339 0.6780576109886169 0.7297594547271729 0.5132797956466675 0.5832805633544922 0.55060875415802 0.4876096844673157 0.853553295135498 0.8108654022216797 0.7724473476409912 0.8108654618263245 0.3535533547401428 0.43341657519340515 0.40774646401405334 0.33587145805358887 0.9061272144317627 0.8798402547836304 0.8371524214744568 0.8608100414276123 0.18023988604545593 0.2668966054916382 0.24921473860740662 0.17122574150562286 0.923879086971283 0.9150031805038452 0.8696860074996948 0.8776741027832031 0.18023988604545593 0.09011994302272797 0.17122574150562286 0.0811057984828949 0.9061272144317627 0.9150031805038452 0.8687981367111206 0.8608100414276123 0.3535533547401428 0.2668966054916382 0.2578824758529663 0.33587145805358887 0.853553295135498 0.8798402547836304 0.83452308177948 0.8108654618263245 0.8154929280281067 0.7918353080749512 0.7343871593475342 0.7545063495635986 0.1622115969657898 0.24020059406757355 0.2164047807455063 0.150080606341362 0.8314691185951233 0.823481023311615 0.7624944448471069 0.7692877054214478 0.1622115969657898 0.0811057984828949 0.150080606341362 0.0689748078584671 0.8154929280281067 0.823481023311615 0.7612996101379395 0.7545063495635986 0.3181895911693573 0.24020059406757355 0.22806960344314575 0.29439377784729004 0.7681776285171509 0.7918353080749512 0.7308486700057983 0.7107294797897339 0.46193957328796387 0.3900645971298218 0.36626875400543213 0.42739343643188477 0.6913414597511292 0.7297595739364624 0.6723114252090454 0.6396394968032837 0.5879377126693726 0.5249386429786682 0.4903925061225891 0.5439687967300415 0.5879377126693726 0.6396396160125732 0.587937593460083 0.5439687967300415 0.6913414597511292 0.6396396160125732 0.5956707000732422 0.6396394968032837 0.46193957328796387 0.5249386429786682 0.48096975684165955 0.42739343643188477 0.7681776285171509 0.7297595739364624 0.6780575513839722 0.7107294797897339 0.3181895911693573 0.3900645971298218 0.3555184304714203 0.29439377784729004 0.5879375338554382 0.6206094622612 0.55060875415802 0.5249385237693787 0.4999999403953552 0.44642359018325806 0.40432900190353394 0.4464236795902252 0.4999999403953552 0.5439687371253967 0.48096972703933716 0.4464236795902252 0.5879375338554382 0.5439687371253967 0.4903924763202667 0.5249385237693787 0.3928472697734833 0.44642359018325806 0.39284735918045044 0.35075268149375916 0.6532813906669617 0.6206094622612 0.5576104521751404 0.5832806825637817 0.2705979645252228 0.331722617149353 0.2896280288696289 0.24160270392894745 0.6935197114944458 0.6734005212783813 0.6033998131752014 0.6192072629928589 0.1379496157169342 0.2042737901210785 0.17527852952480316 0.1231679618358612 0.7071062326431274 0.7003129720687866 0.6260005235671997 0.6313380002975464 0.1379496157169342 0.0689748078584671 0.1231679618358612 0.0541931577026844 0.6935197114944458 0.7003129720687866 0.6245447397232056 0.6192072629928589 0.2705979645252228 0.2042737901210785 0.1894921362400055 0.24160270392894745 0.6532813906669617 0.6734005212783813 0.5990881323814392 0.5832806825637817 0.3928472697734833 0.331722617149353 0.3027273416519165 0.35075268149375916 0.1083863154053688 0.16049687564373016 0.12741641700267792 0.09152205288410187 0.5555697083473206 0.5502322912216187 0.46544986963272095 0.4691263437271118 0.1083863154053688 0.0541931577026844 0.09152205288410187 0.03732889145612717 0.5448948740959167 0.5502322912216187 0.4637889266014099 0.46011245250701904 0.21260744333267212 0.16049687564373016 0.14363262057304382 0.17952698469161987 0.513279914855957 0.5290874242782593 0.4443049728870392 0.4334166347980499 0.30865809321403503 0.2606327533721924 0.22755230963230133 0.26063272356987 0.4619395434856415 0.48760974407196045 0.40774643421173096 0.3900644779205322 0.3928474187850952 0.3507527709007263 0.3027274012565613 0.3317227065563202 0.3928474187850952 0.42739349603652954 0.3555184304714203 0.3317227065563202 0.4619395434856415 0.42739349603652954 0.36626875400543213 0.3900644779205322 0.30865809321403503 0.3507527709007263 0.2896280288696289 0.26063272356987 0.513279914855957 0.48760974407196045 0.4157346785068512 0.4334166347980499 0.21260744333267212 0.2606327533721924 0.21260739862918854 0.17952698469161987 0.5448948740959167 0.5290874242782593 0.4492241144180298 0.46011245250701904 0.27059799432754517 0.29439371824264526 0.2164047658443451 0.20427381992340088 0.31818944215774536 0.29439371824264526 0.22806954383850098 0.2402004897594452 0.21260735392570496 0.24160267412662506 0.17527851462364197 0.1604968011379242 0.3535533547401428 0.3358713984489441 0.2578824460506439 0.26689666509628296 0.14644652605056763 0.1795269399881363 0.12741637229919434 0.11055214703083038 0.37533003091812134 0.3644416928291321 0.2777850031852722 0.28333577513694763 0.07465778291225433 0.11055215448141098 0.07465776801109314 0.05635899305343628 0.3826829493045807 0.3790065050125122 0.2870122194290161 0.2888864278793335 0.07465778291225433 0.03732889145612717 0.05635899305343628 0.019030101597309113 0.37533003091812134 0.3790065050125122 0.2852099537849426 0.28333577513694763 0.14644652605056763 0.11055215448141098 0.09225336462259293 0.11055214703083038 0.3535533547401428 0.3644416928291321 0.2724474370479584 0.26689666509628296 0.21260735392570496 0.1795269399881363 0.14363256096839905 0.1604968011379242 0.31818944215774536 0.3358713984489441 0.24921469390392303 0.2402004897594452 0.27059799432754517 0.24160267412662506 0.1894921064376831 0.20427381992340088 0.038060203194618225 0.019030101597309113 0.019030097872018814 -3.725290298461914e-09 0.19134151935577393 0.19321571290493011 0.09567059576511383 0.09567069262266159 0.07465776056051254 0.056358981877565384 0.03732887655496597 0.03732885420322418 0.1802399456501007 0.18579073250293732 0.09011990576982498 0.09011998772621155 0.10838623344898224 0.09152199327945709 0.05419309064745903 0.05419306829571724 0.16221152245998383 0.17122572660446167 0.0811057761311531 0.08110570907592773 0.13794966042041779 0.12316794693470001 0.06897477805614471 0.0689748227596283 0.13794966042041779 0.1500805914402008 0.06897477805614471 0.0689748227596283 0.16221152245998383 0.1500805914402008 0.08110575377941132 0.08110570907592773 0.10838623344898224 0.12316794693470001 0.05419310927391052 0.05419306829571724 0.1802399456501007 0.17122572660446167 0.09011992067098618 0.09011998772621155 0.07465776056051254 0.09152199327945709 0.03732883185148239 0.03732885420322418 0.19134151935577393 0.18579073250293732 0.09567077457904816 0.09567069262266159 0.038060203194618225 0.056358981877565384 0.019030075520277023 0.019030097872018814 0.1950899064540863 0.19321571290493011 0.09754488617181778 0.09754478931427002 -1.043081283569336e-07 -5.960464477539063e-08 -0.06897488981485367 -0.08110591024160385 -9.685754776000977e-08 -5.587935447692871e-08 -0.06897488981485367 -0.05419325828552246 2.9802322387695312e-08 -3.725290298461914e-08 -0.08110584318637848 -0.09011992067098618 -5.21540641784668e-08 -7.450580596923828e-08 -0.05419323593378067 -0.03732895851135254 -1.341104507446289e-07 -5.21540641784668e-08 -0.09012000262737274 -0.09567096084356308 -7.450580596923828e-09 -2.9802322387695312e-08 -0.03732893615961075 -0.01903011091053486 -3.2782554626464844e-07 -2.3096799850463867e-07 -0.09567105770111084 -0.09754542261362076 -7.450580596923828e-09 -3.725290298461914e-09 -0.01903011091053486 -0.01903010718524456 -1.341104507446289e-07 -2.3096799850463867e-07 -0.097545325756073 -0.09567096084356308 -5.21540641784668e-08 -2.9802322387695312e-08 -0.01903013326227665 -0.03732895851135254 2.9802322387695312e-08 -5.21540641784668e-08 -0.09567087888717651 -0.09011992067098618 -9.685754776000977e-08 -7.450580596923828e-08 -0.03732898086309433 -0.05419325828552246 -1.043081283569336e-07 -3.725290298461914e-08 -0.09011998772621155 -0.08110591024160385 -1.4901161193847656e-08 -5.587935447692871e-08 -0.05419321730732918 -0.06897484511137009 -1.4901161193847656e-08 -5.960464477539063e-08 -0.08110586553812027 -0.06897484511137009 -0.19134178757667542 -0.19321614503860474 -0.28701263666152954 -0.2833360433578491 -0.0746578648686409 -0.05635903775691986 -0.07465782761573792 -0.11055223643779755 -0.18023987114429474 -0.18579083681106567 -0.277785062789917 -0.2668965458869934 -0.10838641971349716 -0.09152214229106903 -0.12741652131080627 -0.16049696505069733 -0.16221171617507935 -0.17122578620910645 -0.2578824758529663 -0.24020066857337952 -0.13794967532157898 -0.12316805124282837 -0.17527858912944794 -0.20427383482456207 -0.13794967532157898 -0.15008069574832916 -0.22806964814662933 -0.20427383482456207 -0.16221171617507935 -0.15008069574832916 -0.21640485525131226 -0.24020066857337952 -0.10838641971349716 -0.12316805124282837 -0.18949219584465027 -0.16049696505069733 -0.18023987114429474 -0.17122578620910645 -0.24921473860740662 -0.2668965458869934 -0.0746578648686409 -0.09152214229106903 -0.1436326801776886 -0.11055223643779755 -0.19134178757667542 -0.18579083681106567 -0.27244752645492554 -0.2833360433578491 -0.03806021437048912 -0.05635903775691986 -0.0922534167766571 -0.056359000504016876 -0.19509051740169525 -0.19321614503860474 -0.28521040081977844 -0.28888699412345886 -0.03806021437048912 -0.01903010718524456 -0.056359000504016876 -0.03732889145612717 -0.2126075029373169 -0.24160274863243103 -0.30272746086120605 -0.26063284277915955 -0.35355323553085327 -0.3358714282512665 -0.40774643421173096 -0.433416485786438 -0.1464466154575348 -0.17952705919742584 -0.2275523990392685 -0.17952705919742584 -0.37533026933670044 -0.36444175243377686 -0.4443050026893616 -0.46011266112327576 -0.07465778291225433 -0.11055219918489456 -0.1436326503753662 -0.09152203798294067 -0.38268348574638367 -0.37900686264038086 -0.46378928422927856 -0.46912682056427 -0.07465778291225433 -0.03732889145612717 -0.09152203798294067 -0.054193150252103806 -0.37533026933670044 -0.37900686264038086 -0.4654501974582672 -0.46011266112327576 -0.1464466154575348 -0.11055219918489456 -0.1274164617061615 -0.17952705919742584 -0.35355323553085327 -0.36444175243377686 -0.4492241442203522 -0.433416485786438 -0.2126075029373169 -0.17952705919742584 -0.2126075029373169 -0.26063284277915955 -0.3181896209716797 -0.3358714282512665 -0.4157346785068512 -0.39006462693214417 -0.27059799432754517 -0.24160274863243103 -0.2896280884742737 -0.3317227065563202 -0.27059799432754517 -0.2943938076496124 -0.3662688136100769 -0.3317227065563202 -0.3181896209716797 -0.2943938076496124 -0.35551851987838745 -0.39006462693214417 -0.2126075029373169 -0.16049690544605255 -0.17527854442596436 -0.24160274863243103 -0.5132797360420227 -0.5290874242782593 -0.6033997535705566 -0.5832804441452026 -0.3086581826210022 -0.26063284277915955 -0.2896280884742737 -0.35075274109840393 -0.46193963289260864 -0.4876096844673157 -0.5576103925704956 -0.5249385833740234 -0.3928474187850952 -0.3507528007030487 -0.39284735918045044 -0.44642364978790283 -0.3928474187850952 -0.42739352583885193 -0.4903925061225891 -0.44642364978790283 -0.46193963289260864 -0.42739352583885193 -0.48096978664398193 -0.5249385833740234 -0.3086581826210022 -0.3507528007030487 -0.4043290615081787 -0.35075274109840393 -0.5132797360420227 -0.4876096844673157 -0.5506086349487305 -0.5832804441452026 -0.2126075029373169 -0.26063284277915955 -0.3027274012565613 -0.24160274863243103 -0.5448950529098511 -0.5290874242782593 -0.5990881323814392 -0.6192073822021484 -0.10838630050420761 -0.16049690544605255 -0.1894921362400055 -0.12316794693470001 -0.555570125579834 -0.5502325892448425 -0.6245449781417847 -0.6313382983207703 -0.10838630050420761 -0.054193150252103806 -0.12316794693470001 -0.06897479295730591 -0.5448950529098511 -0.5502325892448425 -0.6260007619857788 -0.6192073822021484 -0.6532812118530273 -0.6206094026565552 -0.6723113059997559 -0.7107293605804443 -0.27059799432754517 -0.3317226469516754 -0.36626875400543213 -0.29439377784729004 -0.6935197710990906 -0.6734005212783813 -0.7308486104011536 -0.7545063495635986 -0.13794958591461182 -0.2042737901210785 -0.22806957364082336 -0.15008056163787842 -0.7071064710617065 -0.7003130912780762 -0.761299729347229 -0.7692878246307373 -0.13794958591461182 -0.06897479295730591 -0.15008056163787842 -0.0811057761311531 -0.6935197710990906 -0.7003130912780762 -0.7624944448471069 -0.7545063495635986 -0.27059799432754517 -0.2042737901210785 -0.2164047658443451 -0.29439377784729004 -0.6532812118530273 -0.6734005212783813 -0.7343870401382446 -0.7107293605804443 -0.39284729957580566 -0.3317226469516754 -0.3555184304714203 -0.4273934066295624 -0.587937593460083 -0.6206094026565552 -0.6780575513839722 -0.6396394968032837 -0.49999991059303284 -0.44642359018325806 -0.48096972703933716 -0.5439687967300415 -0.49999991059303284 -0.5439687371253967 -0.5956707000732422 -0.5439687967300415 -0.587937593460083 -0.5439687371253967 -0.587937593460083 -0.6396394968032837 -0.39284729957580566 -0.44642359018325806 -0.4903924763202667 -0.4273934066295624 -0.7681774497032166 -0.7918351888656616 -0.8371523022651672 -0.8108652830123901 -0.4619395136833191 -0.390064537525177 -0.4077463746070862 -0.4876095652580261 -0.6913414597511292 -0.7297594547271729 -0.7724472284317017 -0.7297594547271729 -0.5879376530647278 -0.5249385833740234 -0.5506086349487305 -0.6206095218658447 -0.5879376530647278 -0.6396395564079285 -0.6780575513839722 -0.6206095218658447 -0.6913414597511292 -0.6396395564079285 -0.6723114252090454 -0.7297594547271729 -0.4619395136833191 -0.5249385833740234 -0.5576103925704956 -0.4876095652580261 -0.7681774497032166 -0.7297594547271729 -0.7681773900985718 -0.8108652830123901 -0.3181895613670349 -0.390064537525177 -0.41573458909988403 -0.3358713984489441 -0.8154929280281067 -0.7918351888656616 -0.8345229625701904 -0.8608100414276123 -0.1622115522623062 -0.24020054936408997 -0.25788241624832153 -0.1712256819009781 -0.8314691185951233 -0.823481023311615 -0.8687981367111206 -0.8776739835739136 -0.1622115522623062 -0.0811057761311531 -0.1712256819009781 -0.09011990576982498 -0.8154929280281067 -0.823481023311615 -0.8696858882904053 -0.8608100414276123 -0.3181895613670349 -0.24020054936408997 -0.24921467900276184 -0.3358713984489441 -0.35355326533317566 -0.4334164261817932 -0.44922399520874023 -0.3644416928291321 -0.9061271548271179 -0.8798401355743408 -0.9061270952224731 -0.9340332746505737 -0.18023981153964996 -0.2668965458869934 -0.27778497338294983 -0.18579068779945374 -0.9238788485527039 -0.9150030016899109 -0.9429091215133667 -0.9523316621780396 -0.18023981153964996 -0.09011990576982498 -0.18579068779945374 -0.09567077457904816 -0.9061271548271179 -0.9150030016899109 -0.9434558153152466 -0.9340332746505737 -0.35355326533317566 -0.2668965458869934 -0.272447407245636 -0.3644416928291321 -0.853553056716919 -0.8798401355743408 -0.9077461957931519 -0.879840075969696 -0.5132796168327332 -0.4334164261817932 -0.444304883480072 -0.5290871858596802 -0.7681773900985718 -0.8108652234077454 -0.8371522426605225 -0.7918350696563721 -0.6532813310623169 -0.5832804441452026 -0.5990880131721497 -0.6734005212783813 -0.6532813310623169 -0.7107293605804443 -0.7343870401382446 -0.6734005212783813 -0.7681773900985718 -0.7107293605804443 -0.7308485507965088 -0.7918350696563721 -0.5132796168327332 -0.5832804441452026 -0.6033996939659119 -0.5290871858596802 -0.853553056716919 -0.8108652234077454 -0.8345229029655457 -0.879840075969696 -0.8154927492141724 -0.8608099222183228 -0.86968594789505 -0.8234809637069702 -0.6935197710990906 -0.6192072629928589 -0.6245447397232056 -0.7003132104873657 -0.6935197710990906 -0.7545062303543091 -0.7624944448471069 -0.7003132104873657 -0.8154927492141724 -0.7545062303543091 -0.7612996697425842 -0.8234809637069702 -0.5448946952819824 -0.6192072629928589 -0.6260006427764893 -0.5502322316169739 -0.9061270952224731 -0.8608099222183228 -0.8687981367111206 -0.9150031208992004 -0.3753301203250885 -0.46011239290237427 -0.4654499292373657 -0.37900668382644653 -0.9619393944740295 -0.9340332746505737 -0.9429092407226562 -0.9713621139526367 -0.1913415491580963 -0.2833358347415924 -0.28701239824295044 -0.19321584701538086 -0.9807844161987305 -0.9713618755340576 -0.9807846546173096 -0.990391731262207 -0.1913415491580963 -0.09567077457904816 -0.19321584701538086 -0.0975450724363327 -0.9619393944740295 -0.9713618755340576 -0.9809691905975342 -0.9713621139526367 -0.3753301203250885 -0.2833358347415924 -0.28521013259887695 -0.37900668382644653 -0.9061270952224731 -0.9340332746505737 -0.9434559345245361 -0.9150031208992004 -0.5448946952819824 -0.46011239290237427 -0.4637889862060547 -0.5502322316169739 -0.1950901448726654 -0.288886696100235 -0.28521013259887695 -0.19321584701538086 -0.9999990463256836 -0.9903919696807861 -0.9809691309928894 -0.9903916120529175 -0.1950901448726654 -0.0975450724363327 -0.19321584701538086 -0.09567076712846756 -0.9807848334312439 -0.9903919696807861 -0.98078453540802 -0.9713619947433472 -0.38268324732780457 -0.288886696100235 -0.28701239824295044 -0.37900668382644653 -0.9238791465759277 -0.9523320198059082 -0.9429091811180115 -0.9150030612945557 -0.5555697679519653 -0.46912652254104614 -0.4654499292373657 -0.5502321720123291 -0.8314691781997681 -0.8776741623878479 -0.8687981367111206 -0.8234809041023254 -0.7071065902709961 -0.6313381791114807 -0.6260006427764893 -0.700313150882721 -0.7071065902709961 -0.7692878842353821 -0.7612996101379395 -0.700313150882721 -0.8314691781997681 -0.7692878842353821 -0.7624944448471069 -0.8234809041023254 -0.5555697679519653 -0.6313381791114807 -0.6245447397232056 -0.5502321720123291 -0.9238791465759277 -0.8776741623878479 -0.8696858882904053 -0.9150030612945557 -0.38268324732780457 -0.46912652254104614 -0.4637889266014099 -0.37900668382644653 -0.9807848334312439 -0.9523320198059082 -0.9434559345245361 -0.9713619947433472 -0.6935197114944458 -0.6192071437835693 -0.6033995747566223 -0.6734005212783813 -0.6935197114944458 -0.7545061707496643 -0.7308484315872192 -0.6734005212783813 -0.8154926300048828 -0.7545061707496643 -0.7343869209289551 -0.7918349504470825 -0.544894635677337