#
TITLE=""
VARIABLES="X", "Y", "Z", "T", "Hw", "Hi", "HTC", "Beta", "TauX", "TauY", "TauZ", "Id"
ZONE T="ZONE 1"
NODES=1922
ELEMENTS=3840
DATAPACKING=BLOCK
ZONETYPE=FETRIANGLE
VARLOCATION=([4-12]=CELLCENTERED)
2.160668373107910156e-07 1.527369022369384766e-07 6.897494941949844360e-02 5.419329926371574402e-02 5.960464477539062500e-08 2.980232238769531250e-08 8.110586553812026978e-02 9.012000262737274170e-02 6.705522537231445312e-08 1.415610313415527344e-07 5.419322475790977478e-02 3.732895478606224060e-02 0.000000000000000000e+00 2.980232238769531250e-08 9.011997282505035400e-02 9.567085653543472290e-02 1.490116119384765625e-08 4.097819328308105469e-08 3.732892870903015137e-02 1.903012394905090332e-02 0.000000000000000000e+00 0.000000000000000000e+00 9.567085653543472290e-02 9.754516184329986572e-02 1.490116119384765625e-08 7.450580596923828125e-09 1.903012394905090332e-02 0.000000000000000000e+00 7.450580596923828125e-09 1.903011649847030640e-02 0.000000000000000000e+00 0.000000000000000000e+00 9.754516184329986572e-02 9.567085653543472290e-02 6.705522537231445312e-08 4.097819328308105469e-08 1.903015002608299255e-02 3.732895478606224060e-02 5.960464477539062500e-08 2.980232238769531250e-08 9.567088633775711060e-02 9.012000262737274170e-02 0.000000000000000000e+00 3.352761268615722656e-08 3.732892125844955444e-02 5.419319123029708862e-02 0.000000000000000000e+00 2.980232238769531250e-08 9.011997282505035400e-02 8.110583573579788208e-02 8.940696716308593750e-08 4.470348358154296875e-08 5.419323593378067017e-02 6.897488981485366821e-02 8.940696716308593750e-08 4.470348358154296875e-08 8.110588043928146362e-02 6.897488981485366821e-02 0.000000000000000000e+00 4.470348358154296875e-08 6.897484511137008667e-02 8.110583573579788208e-02 1.379496902227401733e-01 1.231680363416671753e-01 1.752786040306091309e-01 2.042738795280456543e-01 1.379496902227401733e-01 1.500806808471679688e-01 2.280696630477905273e-01 2.042738795280456543e-01 1.622116714715957642e-01 1.500806808471679688e-01 2.164048552513122559e-01 2.402006387710571289e-01 1.083863824605941772e-01 1.231680363416671753e-01 1.894922256469726562e-01 1.604969501495361328e-01 1.802399456501007080e-01 1.712258160114288330e-01 2.492147833108901978e-01 2.668966650962829590e-01 7.465784251689910889e-02 9.152211248874664307e-02 1.436326801776885986e-01 1.105522289872169495e-01 1.913417130708694458e-01 1.857908368110656738e-01 2.724475264549255371e-01 2.833359837532043457e-01 3.806023299694061279e-02 5.635903775691986084e-02 9.225342422723770142e-02 5.635903030633926392e-02 1.950903236865997314e-01 1.932160258293151855e-01 2.852103114128112793e-01 2.888868749141693115e-01 3.806023299694061279e-02 1.903011649847030640e-02 5.635903030633926392e-02 3.732891380786895752e-02 1.913417130708694458e-01 1.932160258293151855e-01 2.870125770568847656e-01 2.833359837532043457e-01 7.465784251689910889e-02 5.635903775691986084e-02 7.465783506631851196e-02 1.105522289872169495e-01 1.802399456501007080e-01 1.857908368110656738e-01 2.777851223945617676e-01 2.668966650962829590e-01 1.083863824605941772e-01 9.152211248874664307e-02 1.274164915084838867e-01 1.604969501495361328e-01 1.622116714715957642e-01 1.712258160114288330e-01 2.578825056552886963e-01 2.402006387710571289e-01 3.826834261417388916e-01 3.790068626403808594e-01 4.637892842292785645e-01 4.691268205642700195e-01 7.465782761573791504e-02 3.732891380786895752e-02 9.152209758758544922e-02 5.419318377971649170e-02 3.753302693367004395e-01 3.790068626403808594e-01 4.654502570629119873e-01 4.601126909255981445e-01 1.464466154575347900e-01 1.105522215366363525e-01 1.274164915084838867e-01 1.795270740985870361e-01 3.535533547401428223e-01 3.644418120384216309e-01 4.492242336273193359e-01 4.334166347980499268e-01 2.126075327396392822e-01 1.795270740985870361e-01 2.126075327396392822e-01 2.606329023838043213e-01 3.181896209716796875e-01 3.358714878559112549e-01 4.157347679138183594e-01 3.900646567344665527e-01 2.705980539321899414e-01 2.416027933359146118e-01 2.896281480789184570e-01 3.317227661609649658e-01 2.705980539321899414e-01 2.943938374519348145e-01 3.662688732147216797e-01 3.317227661609649658e-01 3.181896209716796875e-01 2.943938374519348145e-01 3.555185496807098389e-01 3.900646567344665527e-01 2.126075327396392822e-01 2.416027933359146118e-01 3.027275204658508301e-01 2.606329023838043213e-01 3.535533547401428223e-01 3.358714878559112549e-01 4.077465236186981201e-01 4.334166347980499268e-01 1.464466154575347900e-01 1.795270740985870361e-01 2.275524437427520752e-01 1.795270740985870361e-01 3.753302693367004395e-01 3.644418120384216309e-01 4.443050920963287354e-01 4.601126909255981445e-01 7.465782761573791504e-02 1.105522215366363525e-01 1.436326801776885986e-01 9.152209758758544922e-02 3.928474783897399902e-01 4.273935854434967041e-01 4.903925955295562744e-01 4.464237391948699951e-01 4.619396924972534180e-01 4.273935854434967041e-01 4.809698462486267090e-01 5.249387025833129883e-01 3.086582720279693604e-01 3.507528901100158691e-01 4.043291211128234863e-01 3.507528603076934814e-01 5.132799148559570312e-01 4.876098036766052246e-01 5.506088137626647949e-01 5.832806825637817383e-01 2.126075327396392822e-01 2.606329023838043213e-01 3.027274906635284424e-01 2.416027933359146118e-01 5.448951125144958496e-01 5.290875434875488281e-01 5.990882515907287598e-01 6.192075014114379883e-01 1.083863675594329834e-01 1.604969501495361328e-01 1.894922107458114624e-01 1.231680214405059814e-01 5.555702447891235352e-01 5.502326488494873047e-01 6.245450973510742188e-01 6.313384771347045898e-01 1.083863675594329834e-01 5.419318377971649170e-02 1.231680214405059814e-01 6.897483766078948975e-02 5.448951125144958496e-01 5.502326488494873047e-01 6.260009407997131348e-01 6.192075014114379883e-01 2.126075327396392822e-01 1.604969501495361328e-01 1.752786040306091309e-01 2.416027933359146118e-01 5.132799148559570312e-01 5.290875434875488281e-01 6.033998727798461914e-01 5.832806825637817383e-01 3.086582720279693604e-01 2.606329023838043213e-01 2.896281480789184570e-01 3.507528603076934814e-01 4.619396924972534180e-01 4.876098036766052246e-01 5.576105117797851562e-01 5.249387025833129883e-01 3.928474783897399902e-01 3.507528901100158691e-01 3.928474783897399902e-01 4.464237391948699951e-01 8.110582828521728516e-02 6.935198903083801270e-01 7.003133296966552734e-01 7.624946832656860352e-01 7.545064687728881836e-01 2.705980539321899414e-01 2.042738646268844604e-01 2.164048552513122559e-01 2.943938374519348145e-01 6.532813906669616699e-01 6.734006404876708984e-01 7.343872785568237305e-01 7.107294797897338867e-01 3.928474485874176025e-01 3.317227363586425781e-01 3.555185496807098389e-01 4.273935854434967041e-01 5.879377126693725586e-01 6.206095218658447266e-01 6.780576705932617188e-01 6.396396756172180176e-01 5.000000000000000000e-01 4.464237093925476074e-01 4.809698462486267090e-01 5.439689159393310547e-01 5.000000000000000000e-01 5.439688563346862793e-01 5.956708192825317383e-01 5.439689159393310547e-01 5.879377126693725586e-01 5.439688563346862793e-01 5.879377126693725586e-01 6.396396756172180176e-01 3.928474485874176025e-01 4.464237093925476074e-01 4.903926253318786621e-01 4.273935854434967041e-01 6.532813906669616699e-01 6.206095218658447266e-01 6.723115444183349609e-01 7.107294797897338867e-01 2.705980539321899414e-01 3.317227363586425781e-01 3.662688732147216797e-01 2.943938374519348145e-01 6.935198903083801270e-01 6.734006404876708984e-01 7.308487892150878906e-01 7.545064687728881836e-01 1.379496753215789795e-01 2.042738646268844604e-01 2.280696630477905273e-01 1.500806659460067749e-01 7.071067690849304199e-01 7.003133296966552734e-01 7.612999677658081055e-01 7.692881822586059570e-01 1.379496753215789795e-01 6.897483766078948975e-02 1.500806659460067749e-01 4.619397222995758057e-01 5.249387621879577637e-01 5.576105713844299316e-01 4.876098036766052246e-01 7.681776285171508789e-01 7.297596335411071777e-01 7.681776285171508789e-01 8.108654618263244629e-01 3.181896507740020752e-01 3.900646865367889404e-01 4.157347679138183594e-01 3.358715176582336426e-01 8.154931068420410156e-01 7.918353676795959473e-01 8.345232009887695312e-01 8.608102202415466309e-01 1.622116565704345703e-01 2.402006536722183228e-01 2.578825056552886963e-01 1.712257862091064453e-01 8.314695358276367188e-01 8.234813213348388672e-01 8.687984347343444824e-01 8.776744604110717773e-01 1.622116565704345703e-01 8.110582828521728516e-02 1.712257862091064453e-01 9.011995792388916016e-02 8.154931068420410156e-01 8.234813213348388672e-01 8.696862459182739258e-01 8.608102202415466309e-01 3.181896507740020752e-01 2.402006536722183228e-01 2.492147833108901978e-01 3.358715176582336426e-01 7.681776285171508789e-01 7.918353676795959473e-01 8.371524810791015625e-01 8.108654618263244629e-01 4.619397222995758057e-01 3.900646865367889404e-01 4.077465534210205078e-01 4.876098036766052246e-01 6.913416385650634766e-01 7.297596335411071777e-01 7.724474668502807617e-01 7.297596335411071777e-01 5.879377722740173340e-01 5.249387621879577637e-01 5.506088733673095703e-01 6.206096410751342773e-01 5.879377722740173340e-01 6.396397352218627930e-01 6.780576705932617188e-01 6.206096410751342773e-01 6.913416385650634766e-01 6.396397352218627930e-01 6.723115444183349609e-01 7.297596335411071777e-01 3.535533547401428223e-01 2.668966352939605713e-01 2.724475264549255371e-01 3.644418120384216309e-01 8.535532951354980469e-01 8.798403143882751465e-01 9.077464342117309570e-01 8.798403143882751465e-01 5.132799148559570312e-01 4.334166347980499268e-01 4.443050622940063477e-01 5.290874838829040527e-01 7.681776285171508789e-01 8.108654618263244629e-01 8.371524810791015625e-01 7.918353080749511719e-01 6.532814502716064453e-01 5.832806825637817383e-01 5.990882515907287598e-01 6.734006404876708984e-01 6.532814502716064453e-01 7.107295393943786621e-01 7.343872189521789551e-01 6.734006404876708984e-01 7.681776285171508789e-01 7.107295393943786621e-01 7.308487892150878906e-01 7.918353080749511719e-01 5.132799148559570312e-01 5.832806825637817383e-01 6.033998727798461914e-01 5.290874838829040527e-01 8.535532951354980469e-01 8.108654618263244629e-01 8.345231413841247559e-01 8.798403143882751465e-01 3.535533547401428223e-01 4.334166347980499268e-01 4.492242038249969482e-01 3.644418120384216309e-01 9.061273336410522461e-01 8.798403143882751465e-01 9.061273336410522461e-01 9.340335130691528320e-01 1.802399158477783203e-01 2.668966352939605713e-01 2.777850627899169922e-01 1.857907921075820923e-01 9.238793849945068359e-01 9.150033593177795410e-01 9.429094791412353516e-01 9.523322582244873047e-01 1.802399158477783203e-01 9.011995792388916016e-02 1.857907921075820923e-01 9.567083418369293213e-02 9.061273336410522461e-01 9.150033593177795410e-01 9.434561729431152344e-01 9.340335130691528320e-01 9.061273336410522461e-01 8.608101606369018555e-01 8.687983751296997070e-01 9.150034189224243164e-01 3.753302395343780518e-01 4.601126313209533691e-01 4.654501676559448242e-01 3.790068030357360840e-01 9.619396328926086426e-01 9.340335130691528320e-01 9.429095387458801270e-01 9.713623523712158203e-01 1.913416683673858643e-01 2.833359539508819580e-01 2.870125174522399902e-01 1.932159662246704102e-01 9.807850718498229980e-01 9.713623523712158203e-01 9.807851314544677734e-01 9.903923869132995605e-01 1.913416683673858643e-01 9.567083418369293213e-02 1.932159662246704102e-01 9.754513204097747803e-02 9.619396328926086426e-01 9.713623523712158203e-01 9.809696674346923828e-01 9.713623523712158203e-01 3.753302395343780518e-01 2.833359539508819580e-01 2.852102518081665039e-01 3.790068030357360840e-01 9.061273336410522461e-01 9.340335130691528320e-01 9.434562325477600098e-01 9.150034189224243164e-01 5.448950529098510742e-01 4.601126313209533691e-01 4.637892246246337891e-01 5.502325892448425293e-01 8.154929876327514648e-01 8.608101606369018555e-01 8.696862459182739258e-01 8.234812021255493164e-01 6.935198903083801270e-01 6.192075014114379883e-01 6.245449781417846680e-01 7.003133296966552734e-01 6.935198903083801270e-01 7.545064687728881836e-01 7.624946832656860352e-01 7.003133296966552734e-01 8.154929876327514648e-01 7.545064687728881836e-01 7.612998485565185547e-01 8.234812021255493164e-01 5.448950529098510742e-01 6.192075014114379883e-01 6.260008811950683594e-01 5.502325892448425293e-01 9.238794445991516113e-01 9.523322582244873047e-01 9.429094791412353516e-01 9.150034189224243164e-01 5.555701255798339844e-01 4.691267609596252441e-01 4.654501676559448242e-01 5.502325296401977539e-01 8.314694166183471680e-01 8.776744604110717773e-01 8.687983751296997070e-01 8.234812021255493164e-01 7.071067094802856445e-01 6.313384175300598145e-01 6.260008811950683594e-01 7.003132700920104980e-01 7.071067094802856445e-01 7.692880630493164062e-01 7.612998485565185547e-01 7.003132700920104980e-01 8.314694166183471680e-01 7.692880630493164062e-01 7.624946236610412598e-01 8.234812021255493164e-01 5.555701255798339844e-01 6.313384175300598145e-01 6.245449781417846680e-01 5.502325296401977539e-01 9.238794445991516113e-01 8.776744604110717773e-01 8.696861863136291504e-01 9.150034189224243164e-01 3.826833963394165039e-01 4.691267609596252441e-01 4.637891948223114014e-01 3.790068030357360840e-01 9.807851314544677734e-01 9.523322582244873047e-01 9.434562325477600098e-01 9.713623523712158203e-01 1.950902640819549561e-01 2.888868451118469238e-01 2.852102518081665039e-01 1.932159662246704102e-01 9.999997019767761230e-01 9.903924465179443359e-01 9.809696674346923828e-01 9.903923273086547852e-01 1.950902640819549561e-01 9.754513204097747803e-02 1.932159662246704102e-01 9.567082673311233521e-02 9.807851314544677734e-01 9.903924465179443359e-01 9.807850122451782227e-01 9.713623523712158203e-01 3.826833963394165039e-01 2.888868451118469238e-01 2.870125174522399902e-01 3.790068030357360840e-01 3.753302395343780518e-01 4.601126313209533691e-01 4.443050026893615723e-01 3.644418120384216309e-01 9.619395732879638672e-01 9.340334534645080566e-01 9.077464342117309570e-01 9.340333938598632812e-01 1.913416534662246704e-01 2.833359539508819580e-01 2.724474966526031494e-01 1.857907772064208984e-01 9.807848930358886719e-01 9.713622331619262695e-01 9.434560537338256836e-01 9.523320198059082031e-01 1.913416534662246704e-01 9.567082673311233521e-02 1.857907772064208984e-01 9.011994302272796631e-02 9.619395732879638672e-01 9.713622331619262695e-01 9.429093599319458008e-01 9.340333938598632812e-01 3.753302395343780518e-01 2.833359539508819580e-01 2.777850627899169922e-01 3.644418120384216309e-01 9.061273336410522461e-01 9.340334534645080566e-01 9.061272740364074707e-01 8.798403143882751465e-01 5.448949933052062988e-01 4.601126313209533691e-01 4.492241740226745605e-01 5.290874242782592773e-01 8.154929280281066895e-01 8.608101606369018555e-01 8.345230817794799805e-01 7.918351888656616211e-01 6.935198307037353516e-01 6.192073822021484375e-01 6.033998131752014160e-01 6.734006404876708984e-01 6.935198307037353516e-01 7.545063495635986328e-01 7.308486700057983398e-01 6.734006404876708984e-01 8.154929280281066895e-01 7.545063495635986328e-01 7.343871593475341797e-01 7.918351888656616211e-01 5.448949933052062988e-01 6.192073822021484375e-01 5.990881919860839844e-01 5.290874242782592773e-01 9.061273336410522461e-01 8.608101606369018555e-01 8.371524214744567871e-01 8.798403143882751465e-01 5.132797956466674805e-01 4.334165751934051514e-01 4.157347083091735840e-01 4.876096844673156738e-01 7.681775093078613281e-01 8.108654022216796875e-01 7.681775689125061035e-01 7.297594547271728516e-01 6.532813906669616699e-01 5.832805633544921875e-01 5.576105117797851562e-01 6.206095218658447266e-01 6.532813906669616699e-01 7.107294797897338867e-01 6.723114252090454102e-01 6.206095218658447266e-01 7.681775093078613281e-01 7.107294797897338867e-01 6.780576109886169434e-01 7.297594547271728516e-01 5.132797956466674805e-01 5.832805633544921875e-01 5.506087541580200195e-01 4.876096844673156738e-01 8.535532951354980469e-01 8.108654022216796875e-01 7.724473476409912109e-01 8.108654618263244629e-01 3.535533547401428223e-01 4.334165751934051514e-01 4.077464640140533447e-01 3.358714580535888672e-01 9.061272144317626953e-01 8.798402547836303711e-01 8.371524214744567871e-01 8.608100414276123047e-01 1.802398860454559326e-01 2.668966054916381836e-01 2.492147386074066162e-01 1.712257415056228638e-01 9.238790869712829590e-01 9.150031805038452148e-01 8.696860074996948242e-01 8.776741027832031250e-01 1.802398860454559326e-01 9.011994302272796631e-02 1.712257415056228638e-01 8.110579848289489746e-02 9.061272144317626953e-01 9.150031805038452148e-01 8.687981367111206055e-01 8.608100414276123047e-01 3.535533547401428223e-01 2.668966054916381836e-01 2.578824758529663086e-01 3.358714580535888672e-01 8.535532951354980469e-01 8.798402547836303711e-01 8.345230817794799805e-01 8.108654618263244629e-01 8.154929280281066895e-01 7.918353080749511719e-01 7.343871593475341797e-01 7.545063495635986328e-01 1.622115969657897949e-01 2.402005940675735474e-01 2.164047807455062866e-01 1.500806063413619995e-01 8.314691185951232910e-01 8.234810233116149902e-01 7.624944448471069336e-01 7.692877054214477539e-01 1.622115969657897949e-01 8.110579848289489746e-02 1.500806063413619995e-01 6.897480785846710205e-02 8.154929280281066895e-01 8.234810233116149902e-01 7.612996101379394531e-01 7.545063495635986328e-01 3.181895911693572998e-01 2.402005940675735474e-01 2.280696034431457520e-01 2.943937778472900391e-01 7.681776285171508789e-01 7.918353080749511719e-01 7.308486700057983398e-01 7.107294797897338867e-01 4.619395732879638672e-01 3.900645971298217773e-01 3.662687540054321289e-01 4.273934364318847656e-01 6.913414597511291504e-01 7.297595739364624023e-01 6.723114252090454102e-01 6.396394968032836914e-01 5.879377126693725586e-01 5.249386429786682129e-01 4.903925061225891113e-01 5.439687967300415039e-01 5.879377126693725586e-01 6.396396160125732422e-01 5.879375934600830078e-01 5.439687967300415039e-01 6.913414597511291504e-01 6.396396160125732422e-01 5.956707000732421875e-01 6.396394968032836914e-01 4.619395732879638672e-01 5.249386429786682129e-01 4.809697568416595459e-01 4.273934364318847656e-01 7.681776285171508789e-01 7.297595739364624023e-01 6.780575513839721680e-01 7.107294797897338867e-01 3.181895911693572998e-01 3.900645971298217773e-01 3.555184304714202881e-01 2.943937778472900391e-01 5.879375338554382324e-01 6.206094622611999512e-01 5.506087541580200195e-01 5.249385237693786621e-01 4.999999403953552246e-01 4.464235901832580566e-01 4.043290019035339355e-01 4.464236795902252197e-01 4.999999403953552246e-01 5.439687371253967285e-01 4.809697270393371582e-01 4.464236795902252197e-01 5.879375338554382324e-01 5.439687371253967285e-01 4.903924763202667236e-01 5.249385237693786621e-01 3.928472697734832764e-01 4.464235901832580566e-01 3.928473591804504395e-01 3.507526814937591553e-01 6.532813906669616699e-01 6.206094622611999512e-01 5.576104521751403809e-01 5.832806825637817383e-01 2.705979645252227783e-01 3.317226171493530273e-01 2.896280288696289062e-01 2.416027039289474487e-01 6.935197114944458008e-01 6.734005212783813477e-01 6.033998131752014160e-01 6.192072629928588867e-01 1.379496157169342041e-01 2.042737901210784912e-01 1.752785295248031616e-01 1.231679618358612061e-01 7.071062326431274414e-01 7.003129720687866211e-01 6.260005235671997070e-01 6.313380002975463867e-01 1.379496157169342041e-01 6.897480785846710205e-02 1.231679618358612061e-01 5.419315770268440247e-02 6.935197114944458008e-01 7.003129720687866211e-01 6.245447397232055664e-01 6.192072629928588867e-01 2.705979645252227783e-01 2.042737901210784912e-01 1.894921362400054932e-01 2.416027039289474487e-01 6.532813906669616699e-01 6.734005212783813477e-01 5.990881323814392090e-01 5.832806825637817383e-01 3.928472697734832764e-01 3.317226171493530273e-01 3.027273416519165039e-01 3.507526814937591553e-01 1.083863154053688049e-01 1.604968756437301636e-01 1.274164170026779175e-01 9.152205288410186768e-02 5.555697083473205566e-01 5.502322912216186523e-01 4.654498696327209473e-01 4.691263437271118164e-01 1.083863154053688049e-01 5.419315770268440247e-02 9.152205288410186768e-02 3.732889145612716675e-02 5.448948740959167480e-01 5.502322912216186523e-01 4.637889266014099121e-01 4.601124525070190430e-01 2.126074433326721191e-01 1.604968756437301636e-01 1.436326205730438232e-01 1.795269846916198730e-01 5.132799148559570312e-01 5.290874242782592773e-01 4.443049728870391846e-01 4.334166347980499268e-01 3.086580932140350342e-01 2.606327533721923828e-01 2.275523096323013306e-01 2.606327235698699951e-01 4.619395434856414795e-01 4.876097440719604492e-01 4.077464342117309570e-01 3.900644779205322266e-01 3.928474187850952148e-01 3.507527709007263184e-01 3.027274012565612793e-01 3.317227065563201904e-01 3.928474187850952148e-01 4.273934960365295410e-01 3.555184304714202881e-01 3.317227065563201904e-01 4.619395434856414795e-01 4.273934960365295410e-01 3.662687540054321289e-01 3.900644779205322266e-01 3.086580932140350342e-01 3.507527709007263184e-01 2.896280288696289062e-01 2.606327235698699951e-01 5.132799148559570312e-01 4.876097440719604492e-01 4.157346785068511963e-01 4.334166347980499268e-01 2.126074433326721191e-01 2.606327533721923828e-01 2.126073986291885376e-01 1.795269846916198730e-01 5.448948740959167480e-01 5.290874242782592773e-01 4.492241144180297852e-01 4.601124525070190430e-01 2.705979943275451660e-01 2.943937182426452637e-01 2.164047658443450928e-01 2.042738199234008789e-01 3.181894421577453613e-01 2.943937182426452637e-01 2.280695438385009766e-01 2.402004897594451904e-01 2.126073539257049561e-01 2.416026741266250610e-01 1.752785146236419678e-01 1.604968011379241943e-01 3.535533547401428223e-01 3.358713984489440918e-01 2.578824460506439209e-01 2.668966650962829590e-01 1.464465260505676270e-01 1.795269399881362915e-01 1.274163722991943359e-01 1.105521470308303833e-01 3.753300309181213379e-01 3.644416928291320801e-01 2.777850031852722168e-01 2.833357751369476318e-01 7.465778291225433350e-02 1.105521544814109802e-01 7.465776801109313965e-02 5.635899305343627930e-02 3.826829493045806885e-01 3.790065050125122070e-01 2.870122194290161133e-01 2.888864278793334961e-01 7.465778291225433350e-02 3.732889145612716675e-02 5.635899305343627930e-02 1.903010159730911255e-02 3.753300309181213379e-01 3.790065050125122070e-01 2.852099537849426270e-01 2.833357751369476318e-01 1.464465260505676270e-01 1.105521544814109802e-01 9.225336462259292603e-02 1.105521470308303833e-01 3.535533547401428223e-01 3.644416928291320801e-01 2.724474370479583740e-01 2.668966650962829590e-01 2.126073539257049561e-01 1.795269399881362915e-01 1.436325609683990479e-01 1.604968011379241943e-01 3.181894421577453613e-01 3.358713984489440918e-01 2.492146939039230347e-01 2.402004897594451904e-01 2.705979943275451660e-01 2.416026741266250610e-01 1.894921064376831055e-01 2.042738199234008789e-01 3.806020319461822510e-02 1.903010159730911255e-02 1.903009787201881409e-02 -3.725290298461914062e-09 1.913415193557739258e-01 1.932157129049301147e-01 9.567059576511383057e-02 9.567069262266159058e-02 7.465776056051254272e-02 5.635898187756538391e-02 3.732887655496597290e-02 3.732885420322418213e-02 1.802399456501007080e-01 1.857907325029373169e-01 9.011990576982498169e-02 9.011998772621154785e-02 1.083862334489822388e-01 9.152199327945709229e-02 5.419309064745903015e-02 5.419306829571723938e-02 1.622115224599838257e-01 1.712257266044616699e-01 8.110577613115310669e-02 8.110570907592773438e-02 1.379496604204177856e-01 1.231679469347000122e-01 6.897477805614471436e-02 6.897482275962829590e-02 1.379496604204177856e-01 1.500805914402008057e-01 6.897477805614471436e-02 6.897482275962829590e-02 1.622115224599838257e-01 1.500805914402008057e-01 8.110575377941131592e-02 8.110570907592773438e-02 1.083862334489822388e-01 1.231679469347000122e-01 5.419310927391052246e-02 5.419306829571723938e-02 1.802399456501007080e-01 1.712257266044616699e-01 9.011992067098617554e-02 9.011998772621154785e-02 7.465776056051254272e-02 9.152199327945709229e-02 3.732883185148239136e-02 3.732885420322418213e-02 1.913415193557739258e-01 1.857907325029373169e-01 9.567077457904815674e-02 9.567069262266159058e-02 3.806020319461822510e-02 5.635898187756538391e-02 1.903007552027702332e-02 1.903009787201881409e-02 1.950899064540863037e-01 1.932157129049301147e-01 9.754488617181777954e-02 9.754478931427001953e-02 -1.043081283569335938e-07 -5.960464477539062500e-08 -6.897488981485366821e-02 -8.110591024160385132e-02 -9.685754776000976562e-08 -5.587935447692871094e-08 -6.897488981485366821e-02 -5.419325828552246094e-02 2.980232238769531250e-08 -3.725290298461914062e-08 -8.110584318637847900e-02 -9.011992067098617554e-02 -5.215406417846679688e-08 -7.450580596923828125e-08 -5.419323593378067017e-02 -3.732895851135253906e-02 -1.341104507446289062e-07 -5.215406417846679688e-08 -9.012000262737274170e-02 -9.567096084356307983e-02 -7.450580596923828125e-09 -2.980232238769531250e-08 -3.732893615961074829e-02 -1.903011091053485870e-02 -3.278255462646484375e-07 -2.309679985046386719e-07 -9.567105770111083984e-02 -9.754542261362075806e-02 -7.450580596923828125e-09 -3.725290298461914062e-09 -1.903011091053485870e-02 -1.903010718524456024e-02 -1.341104507446289062e-07 -2.309679985046386719e-07 -9.754532575607299805e-02 -9.567096084356307983e-02 -5.215406417846679688e-08 -2.980232238769531250e-08 -1.903013326227664948e-02 -3.732895851135253906e-02 2.980232238769531250e-08 -5.215406417846679688e-08 -9.567087888717651367e-02 -9.011992067098617554e-02 -9.685754776000976562e-08 -7.450580596923828125e-08 -3.732898086309432983e-02 -5.419325828552246094e-02 -1.043081283569335938e-07 -3.725290298461914062e-08 -9.011998772621154785e-02 -8.110591024160385132e-02 -1.490116119384765625e-08 -5.587935447692871094e-08 -5.419321730732917786e-02 -6.897484511137008667e-02 -1.490116119384765625e-08 -5.960464477539062500e-08 -8.110586553812026978e-02 -6.897484511137008667e-02 -1.913417875766754150e-01 -1.932161450386047363e-01 -2.870126366615295410e-01 -2.833360433578491211e-01 -7.465786486864089966e-02 -5.635903775691986084e-02 -7.465782761573791504e-02 -1.105522364377975464e-01 -1.802398711442947388e-01 -1.857908368110656738e-01 -2.777850627899169922e-01 -2.668965458869934082e-01 -1.083864197134971619e-01 -9.152214229106903076e-02 -1.274165213108062744e-01 -1.604969650506973267e-01 -1.622117161750793457e-01 -1.712257862091064453e-01 -2.578824758529663086e-01 -2.402006685733795166e-01 -1.379496753215789795e-01 -1.231680512428283691e-01 -1.752785891294479370e-01 -2.042738348245620728e-01 -1.379496753215789795e-01 -1.500806957483291626e-01 -2.280696481466293335e-01 -2.042738348245620728e-01 -1.622117161750793457e-01 -1.500806957483291626e-01 -2.164048552513122559e-01 -2.402006685733795166e-01 -1.083864197134971619e-01 -1.231680512428283691e-01 -1.894921958446502686e-01 -1.604969650506973267e-01 -1.802398711442947388e-01 -1.712257862091064453e-01 -2.492147386074066162e-01 -2.668965458869934082e-01 -7.465786486864089966e-02 -9.152214229106903076e-02 -1.436326801776885986e-01 -1.105522364377975464e-01 -1.913417875766754150e-01 -1.857908368110656738e-01 -2.724475264549255371e-01 -2.833360433578491211e-01 -3.806021437048912048e-02 -5.635903775691986084e-02 -9.225341677665710449e-02 -5.635900050401687622e-02 -1.950905174016952515e-01 -1.932161450386047363e-01 -2.852104008197784424e-01 -2.888869941234588623e-01 -3.806021437048912048e-02 -1.903010718524456024e-02 -5.635900050401687622e-02 -3.732889145612716675e-02 -2.126075029373168945e-01 -2.416027486324310303e-01 -3.027274608612060547e-01 -2.606328427791595459e-01 -3.535532355308532715e-01 -3.358714282512664795e-01 -4.077464342117309570e-01 -4.334164857864379883e-01 -1.464466154575347900e-01 -1.795270591974258423e-01 -2.275523990392684937e-01 -1.795270591974258423e-01 -3.753302693367004395e-01 -3.644417524337768555e-01 -4.443050026893615723e-01 -4.601126611232757568e-01 -7.465778291225433350e-02 -1.105521991848945618e-01 -1.436326503753662109e-01 -9.152203798294067383e-02 -3.826834857463836670e-01 -3.790068626403808594e-01 -4.637892842292785645e-01 -4.691268205642700195e-01 -7.465778291225433350e-02 -3.732889145612716675e-02 -9.152203798294067383e-02 -5.419315025210380554e-02 -3.753302693367004395e-01 -3.790068626403808594e-01 -4.654501974582672119e-01 -4.601126611232757568e-01 -1.464466154575347900e-01 -1.105521991848945618e-01 -1.274164617061614990e-01 -1.795270591974258423e-01 -3.535532355308532715e-01 -3.644417524337768555e-01 -4.492241442203521729e-01 -4.334164857864379883e-01 -2.126075029373168945e-01 -1.795270591974258423e-01 -2.126075029373168945e-01 -2.606328427791595459e-01 -3.181896209716796875e-01 -3.358714282512664795e-01 -4.157346785068511963e-01 -3.900646269321441650e-01 -2.705979943275451660e-01 -2.416027486324310303e-01 -2.896280884742736816e-01 -3.317227065563201904e-01 -2.705979943275451660e-01 -2.943938076496124268e-01 -3.662688136100769043e-01 -3.317227065563201904e-01 -3.181896209716796875e-01 -2.943938076496124268e-01 -3.555185198783874512e-01 -3.900646269321441650e-01 -2.126075029373168945e-01 -1.604969054460525513e-01 -1.752785444259643555e-01 -2.416027486324310303e-01 -5.132797360420227051e-01 -5.290874242782592773e-01 -6.033997535705566406e-01 -5.832804441452026367e-01 -3.086581826210021973e-01 -2.606328427791595459e-01 -2.896280884742736816e-01 -3.507527410984039307e-01 -4.619396328926086426e-01 -4.876096844673156738e-01 -5.576103925704956055e-01 -5.249385833740234375e-01 -3.928474187850952148e-01 -3.507528007030487061e-01 -3.928473591804504395e-01 -4.464236497879028320e-01 -3.928474187850952148e-01 -4.273935258388519287e-01 -4.903925061225891113e-01 -4.464236497879028320e-01 -4.619396328926086426e-01 -4.273935258388519287e-01 -4.809697866439819336e-01 -5.249385833740234375e-01 -3.086581826210021973e-01 -3.507528007030487061e-01 -4.043290615081787109e-01 -3.507527410984039307e-01 -5.132797360420227051e-01 -4.876096844673156738e-01 -5.506086349487304688e-01 -5.832804441452026367e-01 -2.126075029373168945e-01 -2.606328427791595459e-01 -3.027274012565612793e-01 -2.416027486324310303e-01 -5.448950529098510742