#
TITLE=""
VARIABLES="X", "Y", "Z", "T", "Hw", "Hi", "HTC", "Beta", "TauX", "TauY", "TauZ"
ZONE T="ZONE 1"
NODES=1986
ELEMENTS=3968
DATAPACKING=BLOCK
ZONETYPE=FETRIANGLE
VARLOCATION=([4-11]=CELLCENTERED)
7.078051567077637e-08 6.51925802230835e-08 0.09259818494319916 0.09490590542554855 6.146728992462158e-08 0.08939941972494125 0.1779385209083557 0.18430529534816742 0.18889851868152618 2.4330802261829376e-08 4.377216100692749e-08 0.02819928713142872 0.01975730061531067 7.811468094587326e-08 0.03703048825263977 0.0737045630812645 0.056082915514707565 0.038970351219177246 1.0011717677116394e-07 8.777715265750885e-08 0.09629888832569122 0.09676522761583328 0.19167110323905945 0.19259926676750183 2.4258042685687542e-08 1.2834789231419563e-08 0.013329491950571537 0.01975730061531067 4.48198989033699e-09 0.023047752678394318 0.038970354944467545 5.704350769519806e-09 1.2587406672537327e-08 0.013329491019248962 0.023047754541039467 7.450580596923828e-08 9.004725143313408e-08 0.09629888832569122 0.09490590542554855 0.19167108833789825 0.18889853358268738 5.547190085053444e-08 4.001776687800884e-08 0.02819928713142872 0.03703046962618828 0.056082919239997864 0.0737045630812645 6.100162863731384e-08 6.379559636116028e-08 0.09259818494319916 0.08939941227436066 0.18430529534816742 0.17793850600719452 6.05359673500061e-08 5.99247869104147e-08 0.04561464861035347 0.053759895265102386 0.09079033136367798 0.10700242966413498 6.332993507385254e-08 6.024492904543877e-08 0.08533898741006851 0.08045734465122223 0.1698567271232605 0.16014043986797333 7.078051567077637e-08 6.949994713068008e-08 0.06138698384165764 0.06842336803674698 0.12218321859836578 0.13618825376033783 9.499490261077881e-08 7.194466888904572e-08 0.07480025291442871 0.06842338293790817 0.14888067543506622 0.13618826866149902 6.332993507385254e-08 6.682239472866058e-08 0.07480024546384811 0.08045734465122223 0.14888067543506622 0.16014043986797333 1.5832483768463135e-07 1.3690441846847534e-07 0.06138703599572182 0.05375996232032776 0.12218322604894638 0.10700245946645737 6.030313670635223e-08 0.08533898741006851 0.1698567271232605 1.2922100722789764e-07 0.04561469703912735 0.09079034626483917 0.2527373135089874 0.26476263999938965 0.2382800579071045 0.31412675976753235 0.33318591117858887 0.3490389287471771 0.13509094715118408 0.10966827720403671 0.15921364724636078 0.20989279448986053 0.1780916154384613 0.14457669854164124 0.27423596382141113 0.2810705006122589 0.36152780055999756 0.37053778767585754 0.08351411670446396 0.058512602001428604 0.11001058667898178 0.07644309103488922 0.2851959466934204 0.2865770161151886 0.3759763538837433 0.37779703736305237 0.03947620838880539 0.058512602001428604 0.04520978778600693 0.07644308358430862 0.03947620466351509 0.04520978778600693 0.2851959466934204 0.2810705304145813 0.37597641348838806 0.37053778767585754 0.08351411670446396 0.10966827720403671 0.11001058667898178 0.14457668364048004 0.27423596382141113 0.26476261019706726 0.36152780055999756 0.3490389287471771 0.1350909322500229 0.15921364724636078 0.1780916154384613 0.20989279448986053 0.2527373731136322 0.2382800579071045 0.33318594098091125 0.31412675976753235 0.18180181086063385 0.20264054834842682 0.2396710067987442 0.2671428620815277 0.2215261310338974 0.20264054834842682 0.2920399308204651 0.2671428620815277 0.2215261310338974 0.2920399308204651 0.18180182576179504 0.239670991897583 0.4453350901603699 0.42995113134384155 0.4564337432384491 0.5379374623298645 0.5248571038246155 0.5067260265350342 0.21937577426433563 0.25854894518852234 0.1780916303396225 0.20989279448986053 0.25854891538619995 0.30471712350845337 0.4104231894016266 0.38694578409194946 0.48371097445487976 0.4560413062572479 0.29523012042045593 0.32907038927078247 0.3479483425617218 0.38783130049705505 0.35973888635635376 0.32907038927078247 0.42397627234458923 0.38783130049705505 0.35973894596099854 0.38694581389427185 0.42397627234458923 0.4560413360595703 0.29523012042045593 0.25854891538619995 0.3479483425617218 0.304717093706131 0.4104231595993042 0.42995113134384155 0.48371100425720215 0.5067259669303894 0.21937578916549683 0.1780916303396225 0.25854894518852234 0.20989279448986053 0.4453350901603699 0.4564337134361267 0.5248570442199707 0.5379374623298645 0.13561955094337463 0.09501931071281433 0.1597106158733368 0.11097816377878189 0.4631330370903015 0.4653758108615875 0.5458331108093262 0.5484762787818909 0.06410588324069977 0.09501930326223373 0.06563444435596466 0.1109781563282013 0.06410587579011917 0.06563443690538406 0.4631330370903015 0.5458331108093262 0.13561955094337463 0.1597106158733368 0.29523009061813354 0.23967097699642181 0.3479483425617218 0.38783127069473267 0.32907038927078247 0.2671428620815277 0.5993201732635498 0.6142565011978149 0.5786169171333313 0.6449398398399353 0.6680163145065308 0.6846645474433899 0.18251322209835052 0.1278744637966156 0.20327305793762207 0.1412484049797058 0.6232722401618958 0.6262904405593872 0.694713830947876 0.6980778574943542 0.0862719938158989 0.1278744637966156 0.0835367813706398 0.1412484049797058 0.0862719938158989 0.0835367888212204 0.623272180557251 0.6142565011978149 0.6947137713432312 0.6846645474433899 0.18251320719718933 0.239670991897583 0.20327305793762207 0.2671428620815277 0.5993202328681946 0.5786169171333313 0.6680163145065308 0.6449398398399353 0.29523009061813354 0.3479483127593994 0.3290703594684601 0.38783130049705505 0.552336573600769 0.5207414627075195 0.6156473159790039 0.5804305076599121 0.3973129093647003 0.44285422563552856 0.44285422563552856 0.49361559748649597 0.48412710428237915 0.44285422563552856 0.5396194458007812 0.49361562728881836 0.48412710428237915 0.5207414627075195 0.5396193861961365 0.5804305076599121 0.3973129093647003 0.44285422563552856 0.552336573600769 0.6156473159790039 0.35973894596099854 0.42397624254226685 0.2920399308204651 0.31412678956985474 0.38694578409194946 0.4560413360595703 0.6730241775512695 0.6345252394676208 0.7050466537475586 0.7583690881729126 0.7239246964454651 0.6825141310691833 0.48412710428237915 0.539619505405426 0.5207414627075195 0.5804305672645569 0.5899105668067932 0.5396194458007812 0.6345252990722656 0.5804305672645569 0.589910626411438 0.6345252394676208 0.6345252990722656 0.6825141310691833 0.48412713408470154 0.42397627234458923 0.5207414627075195 0.4560413360595703 0.6730241179466248 0.7050467133522034 0.7239246368408203 0.7583690285682678 0.35973894596099854 0.2920399010181427 0.38694581389427185 0.31412678956985474 0.7302738428115845 0.7484736442565918 0.7855040431022644 0.8050803542137146 0.2223930060863495 0.1558154672384262 0.23902380466461182 0.16609054803848267 0.759459376335144 0.7631371021270752 0.816896915435791 0.8208527565002441 0.10512273013591766 0.1558154821395874 0.09822887182235718 0.16609054803848267 0.10512273013591766 0.09822887182235718 0.759459376335144 0.7484736442565918 0.816896915435791 0.8050803542137146 0.2223929911851883 0.2390238344669342 0.7302737236022949 0.7855040431022644 0.833163321018219 0.8539273738861084 0.8043819665908813 0.8426544666290283 0.8728052973747253 0.8945572376251221 0.2537263333797455 0.17776860296726227 0.33318594098091125 0.3490389585494995 0.26558902859687805 0.18454991281032562 0.8664609789848328 0.8706567883491516 0.9076871871948242 0.9120826125144958 0.11993364989757538 0.17776860296726227 0.10914607346057892 0.18454989790916443 0.11993364244699478 0.10914607346057892 0.8664610385894775 0.8539273738861084 0.9076871871948242 0.8945572972297668 0.2537263333797455 0.33318594098091125 0.26558902859687805 0.3490389585494995 0.8331633806228638 0.8043819665908813 0.8728052973747253 0.8426544666290283 0.4104231595993042 0.48371103405952454 0.42995113134384155 0.5067259669303894 0.7678477764129639 0.7239246368408203 0.8043819069862366 0.7583690285682678 0.552336573600769 0.6156473755836487 0.5786169767379761 0.6449398994445801 0.6730241775512695 0.6156473755836487 0.7050467133522034 0.6449398994445801 0.6730241179466248 0.7239246368408203 0.7050467133522034 0.7583690285682678 0.5523366332054138 0.48371103405952454 0.5786169171333313 0.5067259669303894 0.7678477764129639 0.8043819069862366 0.4104231595993042 0.42995110154151917 0.833163321018219 0.7855039834976196 0.8728053569793701 0.8945572376251221 0.8539272546768188 0.805080235004425 0.5993202924728394 0.668016254901886 0.5248569846153259 0.5379374027252197 0.6142563819885254 0.6846644878387451 0.7302737236022949 0.668016254901886 0.7484735250473022 0.6846644282341003 0.7302737832069397 0.7855039834976196 0.748473584651947 0.8050802946090698 0.5993201732635498 0.5248569846153259 0.6142564415931702 0.5379374623298645 0.8331632018089294 0.8728053569793701 0.8539273142814636 0.8945571780204773 0.4453350603580475 0.36152780055999756 0.4564337134361267 0.37053772807121277 0.9040349721908569 0.9265651702880859 0.9265651702880859 0.9496569037437439 0.27530908584594727 0.19289016723632812 0.2819477915763855 0.19591712951660156 0.9401648640632629 0.9447175860404968 0.9635955691337585 0.9682617783546448 0.13013559579849243 0.19289016723632812 0.11586884409189224 0.19591712951660156 0.13013558089733124 0.11586884409189224 0.9401649236679077 0.9265651702880859 0.9635955095291138 0.9496569037437439 0.2753090560436249 0.36152780055999756 0.2819477915763855 0.37053772807121277 0.9040349125862122 0.9265651702880859 0.4453350603580475 0.4564337432384491 0.28631189465522766 0.2005990594625473 0.3759763538837433 0.37779700756073 0.2874714732170105 0.19975538551807404 0.9777387976646423 0.9824734330177307 0.9635955691337585 0.96826171875 0.9824734926223755 0.9872310161590576 0.1353364884853363 0.2005990743637085 0.11813884228467941 0.19975538551807404 0.1353364735841751 0.11813884228467941 0.9777388572692871 0.9635955691337585 0.9824734926223755 0.9682617783546448 0.2863118648529053 0.3759763836860657 0.2874714434146881 0.37779700756073 0.9401649236679077 0.9076871871948242 0.9447176456451416 0.9120826125144958 0.4631330072879791 0.5458330512046814 0.46537572145462036 0.5484762191772461 0.866460919380188 0.8168968558311462 0.8706567287445068 0.8208526968955994 0.623272180557251 0.6947137117385864 0.6262904405593872 0.6980777978897095 0.759459376335144 0.6947137117385864 0.7631370425224304 0.6980777978897095 0.7594593167304993 0.8168968558311462 0.7631369829177856 0.8208526968955994 0.6232721209526062 0.5458330512046814 0.6262904405593872 0.5484762191772461 0.866460919380188 0.9076871871948242 0.8706567287445068 0.9120826125144958 0.4631330072879791 0.46537572145462036 0.9401648640632629 0.9447175860404968 0.7594592571258545 0.6947137713432312 0.8168967962265015 0.805080235004425 0.748473584651947 0.6846644878387451 0.759459376335144 0.8168967962265015 0.6947137713432312 0.6846644878387451 0.7484735250473022 0.8050801753997803 0.6232721209526062 0.5458330512046814 0.6142563223838806 0.5379374027252197 0.8664608597755432 0.907687246799469 0.8539273738861084 0.8945572376251221 0.4631330072879791 0.3759763240814209 0.45643365383148193 0.37053772807121277 0.9401649236679077 0.9635955095291138 0.9265652298927307 0.9496568441390991 0.28631189465522766 0.2005990594625473 0.2819477915763855 0.19591711461544037 0.9777386784553528 0.9824734330177307 0.963595449924469 0.9682615995407104 0.1353364884853363 0.2005990594625473 0.11586883664131165 0.19591711461544037 0.1353364735841751 0.11586884409189224 0.9777387380599976 0.9635955095291138 0.9635955095291138 0.9496569037437439 0.2863118648529053 0.3759763836860657 0.2819477915763855 0.37053778767585754 0.9401648640632629 0.907687246799469 0.9265651702880859 0.8945572376251221 0.4631330072879791 0.5458329916000366 0.45643365383148193 0.537937343120575 0.8664608597755432 0.8539273142814636 0.623272180557251 0.6142563819885254 0.13013559579849243 0.19289013743400574 0.10914605110883713 0.18454988300800323 0.13013556599617004 0.10914604365825653 0.19289013743400574 0.18454988300800323 0.9401646256446838 0.9265651702880859 0.9447174072265625 0.9120823740959167 0.9076870083808899 0.8945571780204773 0.2753090560436249 0.36152777075767517 0.26558899879455566 0.34903889894485474 0.9040347933769226 0.8728052377700806 0.8728052377700806 0.8426544666290283 0.4453349709510803 0.5248569250106812 0.42995110154151917 0.5067259073257446 0.8331631422042847 0.7855039238929749 0.8043819069862366 0.7583689093589783 0.5993200540542603 0.6680161356925964 0.5786167979240417 0.6449397802352905 0.7302736043930054 0.668016254901886 0.7050465941429138 0.6449397802352905 0.7302736639976501 0.7855039238929749 0.7050466537475586 0.7583689093589783 0.5993200540542603 0.5248569846153259 0.5786168575286865 0.5067259073257446 0.8331631422042847 0.8728052377700806 0.8043819665908813 0.8426544666290283 0.4453349709510803 0.36152777075767517 0.4299510717391968 0.34903889894485474 0.9040347933769226 0.9265651106834412 0.8728052973747253 0.8945571184158325 0.2753090560436249 0.2655889689922333 0.9401646852493286 0.9076870083808899 0.67302405834198 0.723924458026886 0.6156472563743591 0.5804305076599121 0.6345252394676208 0.682513952255249 0.5523364543914795 0.483710914850235 0.6156472563743591 0.5804304480552673 0.5207414031028748 0.45604127645492554 0.7678475379943848 0.8043819069862366 0.723924458026886 0.758368968963623 0.4104231297969818 0.3331858813762665 0.3869457244873047 0.3141266703605652 0.8331631422042847 0.8539272546768188 0.7855039238929749 0.805079996585846 0.2537263035774231 0.1777685582637787 0.23902378976345062 0.1660904884338379 0.8664606213569641 0.8706564903259277 0.8168965578079224 0.8208524584770203 0.11993362009525299 0.1777685582637787 0.09822884947061539 0.1660904884338379 0.1199336051940918 0.09822884947061539 0.8664606213569641 0.8539272546768188 0.8168965578079224 0.8050801157951355 0.2537262737751007 0.3331858813762665 0.23902375996112823 0.3141266703605652 0.8331631422042847 0.8043819069862366 0.7855038642883301 0.7583690285682678 0.4104230999946594 0.4837108850479126 0.3869456946849823 0.45604127645492554 0.7678475975990295 0.7239245176315308 0.7239245772361755 0.682513952255249 0.5523365139961243 0.5207412838935852 0.6730239987373352 0.6345251798629761 0.7594590187072754 0.7484734058380127 0.7631366848945618 0.698077380657196 0.6947134733200073 0.6846643686294556 0.22239293158054352 0.2920398414134979 0.15581543743610382 0.14124834537506104 0.2032729834318161 0.26714274287223816 0.7302737236022949 0.7050465941429138 0.6680161952972412 0.6449397206306458 0.3597387969493866 0.4239761233329773 0.32907024025917053 0.3878311514854431 0.6730241179466248 0.6345251202583313 0.6156471967697144 0.5804303884506226 0.484127014875412 0.5396193265914917 0.4428540766239166 0.4936155080795288 0.5899105072021484 0.5396193861961365 0.5396192669868469 0.4936155378818512 0.5899104475975037 0.6345251798629761 0.5396193265914917 0.5804303884506226 0.484127014875412 0.4239760935306549 0.442854106426239 0.3878311812877655 0.6730241179466248 0.7050465941429138 0.6156471371650696 0.6449397206306458 0.3597387969493866 0.2920398414134979 0.32907024025917053 0.26714277267456055 0.7302737236022949 0.7484734058380127 0.6680161952972412 0.6846643090248108 0.22239293158054352 0.15581543743610382 0.2032729983329773 0.14124834537506104 0.7594590783119202 0.6947134733200073 0.10512269288301468 0.08353675156831741 0.10512267798185349 0.08353675156831741 0.3973127603530884 0.3479481637477875 0.4428541660308838 0.3878312110900879 0.34794819355010986 0.3047170042991638 0.5523365139961243 0.5786168575286865 0.52074134349823 0.45604127645492554 0.483710914850235 0.5067259669303894 0.295229971408844 0.23967088758945465 0.2585487961769104 0.20989270508289337 0.599320113658905 0.6142562031745911 0.5248569250106812 0.5379372239112854 0.18251314759254456 0.12787441909313202 0.15971054136753082 0.11097811162471771 0.6232718825340271 0.6262901425361633 0.5458327531814575 0.5484758615493774 0.08627196401357651 0.12787441909313202 0.06563441455364227 0.11097811907529831 0.08627194166183472 0.06563440710306168 0.6232718229293823 0.6142562627792358 0.5458327531814575 0.5379372239112854 0.18251314759254456 0.23967088758945465 0.15971054136753082 0.20989271998405457 0.599320113658905 0.5786168575286865 0.5248569250106812 0.5067259073257446 0.295229971408844 0.3479481637477875 0.2585487961769104 0.30471697449684143 0.5523364543914795 0.52074134349823 0.4837108850479126 0.45604121685028076 0.397312730550766 0.4428541660308838 0.34794822335243225 0.3878312110900879 0.4841269850730896 0.42397618293762207 0.4841269850730896 0.4239761531352997 0.13561949133872986 0.17809149622917175 0.09501925110816956 0.07644303888082504 0.110010527074337 0.14457657933235168 0.44533494114875793 0.4299510717391968 0.4564334750175476 0.37053757905960083 0.3615277111530304 0.34903883934020996 0.21937566995620728 0.2585487961769104 0.17809149622917175 0.2098926454782486 0.41042307019233704 0.3869456648826599 0.3331858217716217 0.3141266107559204 0.2952300012111664 0.3290702998638153 0.23967088758945465 0.26714277267456055 0.3597387969493866 0.3290702700614929 0.29203981161117554 0.26714277267456055 0.3597387969493866 0.3869456648826599 0.29203978180885315 0.3141266107559204 0.295229971408844 0.2585487961769104 0.23967088758945465 0.2098926603794098 0.4104230999946594 0.4299510717391968 0.3331858515739441 0.34903883934020996 0.21937566995620728 0.17809151113033295 0.17809149622917175 0.14457659423351288 0.44533491134643555 0.4564334750175476 0.3615277111530304 0.37053751945495605 0.13561949133872986 0.09501925855875015 0.11001051217317581 0.07644303888082504 0.46313270926475525 0.4653753638267517 0.375976026058197 0.37779664993286133 0.06410584598779678 0.04520975798368454 0.06410584598779678 0.04520975798368454 0.46313270926475525 0.375976026058197 0.25273725390434265 0.2647625505924225 0.23827993869781494 0.16014032065868378 0.16985663771629333 0.17793846130371094 0.13509082794189453 0.10966818779706955 0.15921352803707123 0.10700231790542603 0.09079020470380783 0.07370447367429733 0.27423590421676636 0.2810702919960022 0.18430517613887787 0.18889832496643066 0.08351405709981918 0.05851255729794502 0.05608286336064339 0.03897031769156456 0.28519564867019653 0.28657662868499756 0.19167079031467438 0.19259893894195557 0.0394761823117733 0.05851255729794502 0.023047735914587975 0.03897031769156456 0.0394761860370636 0.023047732189297676 0.28519561886787415 0.2810702919960022 0.19167080521583557 0.18889832496643066 0.08351405709981918 0.10966818779706955 0.05608285591006279 0.07370447367429733 0.27423587441444397 0.2647625505924225 0.18430517613887787 0.17793846130371094 0.13509081304073334 0.15921352803707123 0.09079020470380783 0.10700231790542603 0.25273722410202026 0.23827993869781494 0.16985663771629333 0.16014032065868378 0.1818017065525055 0.20264044404029846 0.12218312174081802 0.13618817925453186 0.22152604162693024 0.20264045894145966 0.14888058602809906 0.13618819415569305 0.22152602672576904 0.14888057112693787 0.1818017065525055 0.12218312174081802 0.092598095536232 0.08939935266971588 0.09490571171045303 -1.3783574104309082e-07 -5.8906152844429016e-08 -1.816079020500183e-08 0.045614540576934814 0.05375978350639343 0.037030380219221115 -5.2386894822120667e-08 -7.011112757027149e-08 -7.520429790019989e-08 0.08533890545368195 0.08045724034309387 -3.719469532370567e-08 -6.332993507385254e-08 0.061386898159980774 0.06842327862977982 -5.841138772666454e-08 -4.307366907596588e-08 0.07480015605688095 0.06842327862977982 -5.960464477539063e-08 -4.284083843231201e-08 0.07480016350746155 0.08045724779367447 -5.672336556017399e-08 -6.309710443019867e-08 0.061386898159980774 0.05375978723168373 -5.6927092373371124e-08 -7.520429790019989e-08 0.08533890545368195 0.08939935266971588 -3.512832336127758e-08 -1.7695128917694092e-08 0.045614540576934814 0.037030380219221115 -7.051858119666576e-08 -5.2386894822120667e-08 0.092598095536232 0.09490571171045303 -5.6927092373371124e-08 -1.3783574104309082e-07 0.028199221938848495 0.019757261499762535 -3.003515303134918e-08 -1.3809767551720142e-08 0.09629862755537033 0.09676490724086761 -2.2351741790771484e-07 -2.6030465960502625e-07 0.013329471461474895 0.019757263362407684 -4.903995431959629e-09 -1.3445969671010971e-08 0.013329473324120045 -4.554749466478825e-09 0.09629862010478973 -2.2532185539603233e-07 0.028199221938848495 -3.070454113185406e-08 -0.04561467841267586 -0.03703048452734947 -0.053759925067424774 -0.10700245201587677 -0.09079035371541977 -0.07370457053184509 -0.09259819984436035 -0.09490598738193512 -0.08939938992261887 -0.17793846130371094 -0.18430529534816742 -0.18889860808849335 -0.02819928154349327 -0.019757287576794624 -0.056082919239997864 -0.03897034004330635 -0.09629905968904495 -0.0967654287815094 -0.1916712373495102 -0.19259941577911377 -0.013329483568668365 -0.019757289439439774 -0.023047739639878273 -0.038970332592725754 -0.013329479843378067 -0.023047737777233124 -0.09629905223846436 -0.09490599483251572 -0.191671222448349 -0.18889859318733215 -0.02819928340613842 -0.03703048452734947 -0.056082919239997864 -0.07370457053184509 -0.09259819239377975 -0.08939938992261887 -0.18430529534816742 -0.17793847620487213 -0.04561467468738556 -0.053759925067424774 -0.09079035371541977 -0.10700245201587677 -0.08533897995948792 -0.08045737445354462 -0.1698567122220993 -0.16014043986797333 -0.061386991292238235 -0.06842336058616638 -0.12218322604894638 -0.13618825376033783 -0.07480025291442871 -0.06842335313558578 -0.14888069033622742 -0.13618823885917664 -0.07480026036500931 -0.08045737445354462 -0.14888067543506622 -0.16014043986797333 -0.061386991292238235 -0.12218323349952698 -0.08533897250890732 -0.1698567122220993 -0.2527373135089874 -0.2382800430059433 -0.2647625505924225 -0.34903886914253235 -0.33318591117858887 -0.3141267001628876 -0.18180179595947266 -0.20264051854610443 -0.15921364724636078 -0.20989276468753815 -0.23967093229293823 -0.2671428322792053 -0.2215261310338974 -0.20264051854610443 -0.2920399010181427 -0.2671428322792053 -0.2215261310338974 -0.2382800579071045 -0.2920399010181427 -0.3141267001628876 -0.18180181086063385 -0.15921364724636078 -0.23967093229293823 -0.20989279448986053 -0.25273728370666504 -0.2647625803947449 -0.3331858813762665 -0.34903886914253235 -0.13509094715118408 -0.10966827720403671 -0.1780916005373001 -0.14457666873931885 -0.27423593401908875 -0.2810705304145813 -0.36152777075767517 -0.37053775787353516 -0.08351410180330276 -0.058512572199106216 -0.11001056432723999 -0.07644305378198624 -0.2851960062980652 -0.2865770757198334 -0.37597641348838806 -0.37779709696769714 -0.0394761897623539 -0.058512572199106216 -0.04520976170897484 -0.07644305378198624 -0.0394761823117733 -0.04520975798368454 -0.2851960062980652 -0.2810705304145813 -0.37597641348838806 -0.37053775787353516 -0.08351410180330276 -0.10966827720403671 -0.1100105568766594 -0.14457666873931885 -0.27423596382141113 -0.36152777075767517 -0.13509094715118408 -0.1780916005373001 -0.13561953604221344 -0.09501926600933075 -0.17809157073497772 -0.20989274978637695 -0.1597105860710144 -0.11097811907529831 -0.4631330370903015 -0.46537578105926514 -0.4564336836338043 -0.5379374027252197 -0.5458330512046814 -0.5484762191772461 -0.0641058161854744 -0.09501925855875015 -0.06563439965248108 -0.11097811162471771 -0.06410583853721619 -0.06563439965248108 -0.4631330370903015 -0.4564336836338043 -0.5458330512046814 -0.5379374623298645 -0.13561950623989105 -0.17809157073497772 -0.15971055626869202 -0.20989274978637695 -0.4453350305557251 -0.429951012134552 -0.5248569250106812 -0.5067258477210999 -0.21937574446201324 -0.25854888558387756 -0.2585488557815552 -0.3047170639038086 -0.4104230999946594 -0.3869457542896271 -0.4837108850479126 -0.45604127645492554 -0.29523006081581116 -0.3290703594684601 -0.347948282957077 -0.3878312408924103 -0.35973888635635376 -0.3290703296661377 -0.42397621273994446 -0.3878312408924103 -0.35973888635635376 -0.3869457542896271 -0.42397618293762207 -0.45604127645492554 -0.29523006081581116 -0.25854888558387756 -0.34794825315475464 -0.3047170639038086 -0.41042307019233704 -0.4299510419368744 -0.4837108850479126 -0.5067258477210999 -0.21937575936317444 -0.25854888558387756 -0.4453350007534027 -0.5248569250106812 -0.39731279015541077 -0.4428541362285614 -0.34794822335243225 -0.3878312110900879 -0.442854106426239 -0.4936154782772064 -0.4841269850730896 -0.4428541362285614 -0.52074134349823 -0.5804304480552673 -0.5396193265914917 -0.4936155378818512 -0.484127014875412 -0.52074134349823 -0.5396192669868469 -0.5804303884506226 -0.39731279015541077 -0.34794825315475464 -0.442854106426239 -0.3878312110900879 -0.5523363947868347 -0.5786167979240417 -0.6156471967697144 -0.644939661026001 -0.2952300012111664 -0.23967093229293823 -0.3290702700614929 -0.26714277267456055 -0.599320113658905 -0.6142563819885254 -0.6680161356925964 -0.6846644282341003 -0.18251316249370575 -0.12787440419197083 -0.2032729983329773 -0.14124833047389984 -0.6232720613479614 -0.6262903213500977 -0.6947136521339417 -0.6980776786804199 -0.08627194911241531 -0.12787441909313202 -0.08353674411773682 -0.14124834537506104 -0.08627196401357651 -0.08353673666715622 -0.6232720017433167 -0.6142563819885254 -0.6947136521339417 -0.6846643686294556 -0.18251316249370575 -0.23967090249061584 -0.2032729834318161 -0.26714277267456055 -0.599320113658905 -0.578616738319397 -0.6680161952972412 -0.644939661026001 -0.29523003101348877 -0.3290702700614929 -0.5523363947868347 -0.6156471371650696 -0.7594590783119202 -0.7631368041038513 -0.7484734058380127 -0.8050801157951355 -0.8168966174125671 -0.8208523988723755 -0.10512266308069229 -0.15581540763378143 -0.098228819668293 -0.1660904735326767 -0.10512267798185349 -0.0982288122177124 -0.15581542253494263 -0.1660904586315155 -0.7594591379165649 -0.7484734654426575 -0.8168966770172119 -0.8050801157951355 -0.22239291667938232 -0.2920398712158203 -0.23902370035648346 -0.3141266405582428 -0.7302736043930054 -0.705046534538269 -0.7855039238929749 -0.7583688497543335 -0.359738826751709 -0.4239761233329773 -0.3869456648826599 -0.4560411870479584 -0.6730239391326904 -0.6345250606536865 -0.723924458026886 -0.6825138926506042 -0.4841269552707672 -0.5396193265914917 -0.5207412838935852 -0.5804303884506226 -0.5899104475975037 -0.5396193265914917 -0.6345250606536865 -0.5804303884506226 -0.5899105072021484 -0.6345250606536865 -0.6345251202583313 -0.6825138926506042 -0.4841269850730896 -0.4239761233329773 -0.52074134349823 -0.4560411870479584 -0.6730239391326904 -0.705046534538269 -0.7239243984222412 -0.7583687901496887 -0.359738826751709 -0.2920398414134979 -0.3869456946849823 -0.3141266405582428 -0.7302735447883606 -0.7855039238929749 -0.22239290177822113 -0.23902373015880585 -0.6730239391326904 -0.6156471371650696 -0.723924458026886 -0.7583687901496887 -0.7050465941429138 -0.6449397206306458 -0.6730239391326904 -0.723924458026886 -0.6156471967697144 -0.6449397206306458 -0.7050465941429138 -0.7583688497543335 -0.5523363947868347 -0.48371079564094543 -0.578616738319397 -0.5067257881164551 -0.76784747838974 -0.8043817281723022 -0.804381787776947 -0.842654287815094 -0.41042301058769226 -0.3331858515739441 -0.4299509525299072 -0.3490388095378876 -0.8331630229949951 -0.8539271950721741 -0.872805118560791 -0.894556999206543 -0.25372621417045593 -0.1777684986591339 -0.2655889093875885 -0.18454982340335846 -0.8664606213569641 -0.8706563711166382 -0.9076868295669556 -0.9120822548866272 -0.1199335902929306 -0.17776848375797272 -0.10914599895477295 -0.18454983830451965 -0.1199335977435112 -0.10914599895477295 -0.8664606213569641 -0.8539271950721741 -0.9076868891716003 -0.8945570588111877 -0.25372621417045593 -0.3331858217716217 -0.2655889093875885 -0.3490387797355652 -0.8331630825996399 -0.804381787776947 -0.872805118560791 -0.8426542282104492 -0.4104229807853699 -0.4837108254432678 -0.4299509525299072 -0.5067257881164551 -0.7678474187850952 -0.8043817281723022 -0.5523363351821899 -0.5786167979240417 -0.13013552129268646 -0.19289006292819977 -0.11586877703666687 -0.1959170401096344 -0.13013552129268646 -0.11586876958608627 -0.19289006292819977 -0.1959170252084732 -0.9401644468307495 -0.9265648126602173 -0.9447171688079834 -0.968261182308197 -0.9635951519012451 -0.94965660572052 -0.2753089666366577 -0.36152762174606323 -0.28194767236709595 -0.37053754925727844 -0.9040346741676331 -0.8728050589561462 -0.9265648722648621 -0.8945570588111877 -0.44533485174179077 -0.5248568058013916 -0.4564334750175476 -0.5379371643066406 -0.8331630229949951 -0.7855037450790405 -0.8539271354675293 -0.8050800561904907 -0.5993199944496155 -0.6680161356925964 -0.6142562627792358 -0.684664249420166 -0.7302736043930054 -0.6680161356925964 -0.7484734058380127 -0.6846643090248108 -0.7302734851837158 -0.7855038046836853 -0.7484734654426575 -0.8050800561904907 -0.5993199944496155 -0.5248568058013916 -0.6142562627792358 -0.5379371643066406 -0.8331629633903503 -0.872805118560791 -0.8539271354675293 -0.8945570588111877 -0.44533488154411316 -0.3615276515483856 -0.4564334750175476 -0.3705376088619232 -0.9040345549583435 -0.9265648722648621 -0.9265649318695068 -0.94965660572052 -0.2753089666366577 -0.28194767236709595 -0.9401645064353943 -0.9635951519012451 -0.7594591379165649 -0.8168967366218567 -0.6947135329246521 -0.6980777382850647 -0.7631368637084961 -0.8208523392677307 -0.6232718825340271 -0.5458327531814575 -0.6947135329246521 -0.6980777382850647 -0.6262901425361633 -0.5484759211540222 -0.8664606213569641 -0.9076869487762451 -0.8706564903259277 -0.9120823740959167 -0.4631327688694 -0.37597617506980896 -0.46537551283836365 -0.37779685854911804 -0.9401645064353943 -0.9635952115058899 -0.944717288017273 -0.9682614207267761 -0.2863117754459381 -0.20059892535209656 -0.28747135400772095 -0.1997552514076233 -0.9777382612228394 -0.9824729561805725 -0.9824729561805725 -0.9872305393218994 -0.13533641397953033 -0.20059895515441895 -0.11813876777887344 -0.1997552514076233 -0.13533639907836914 -0.11813876777887344 -0.9777382016181946 -0.9635952711105347 -0.9824729561805725 -0.9682613611221313 -0.2863117456436157 -0.37597620487213135 -0.28747132420539856 -0.3777