#
TITLE=""
VARIABLES="X", "Y", "Z", "T", "Hw", "Hi", "HTC", "Beta", "TauX", "TauY", "TauZ"
ZONE T="ZONE 1"
NODES=1664
ELEMENTS=3324
DATAPACKING=BLOCK
ZONETYPE=FETRIANGLE
VARLOCATION=([4-11]=CELLCENTERED)
-0.9864495396614075 -0.9096968173980713 -0.9096968173980713 -0.9864495396614075 -0.9898375272750854 -0.9918702840805054 -1.0000015497207642 -0.9898375272750854 -0.9096968173980713 -0.9096968173980713 -0.9898375272750854 -0.9864495396614075 -0.9918702840805054 -1.0000015497207642 -0.9096968173980713 -0.9096968173980713 -0.9096968173980713 -0.7697434425354004 -0.6297901272773743 -0.6297901272773743 -0.7697434425354004 -0.7697434425354004 -0.7697434425354004 -0.6297901272773743 -0.6297901272773743 -0.7697434425354004 -0.6297901272773743 -0.6297901272773743 -0.7697434425354004 -0.6297901272773743 -0.7697434425354004 -0.9096968173980713 -0.6297901272773743 -0.7697434425354004 -0.9864495396614075 -0.9898375272750854 -0.9096968173980713 -0.9096968173980713 -0.9864495396614075 -0.9918702840805054 -1.0000015497207642 -0.9898375272750854 -0.9096968173980713 -0.9096968173980713 -0.9096968173980713 -0.7697434425354004 -0.7697434425354004 -0.6297901272773743 -0.6297901272773743 -0.7697434425354004 -0.6297901272773743 -0.6297901272773743 -0.7697434425354004 -0.7697434425354004 -0.6297901272773743 -0.9898375272750854 -1.0000015497207642 -0.9898375272750854 -0.9864495396614075 -0.9096968173980713 -0.9096968173980713 -0.9096968173980713 -1.0000015497207642 -1.0000015497207642 -1.0000015497207642 -0.9918702840805054 -0.9918702840805054 -0.9096968173980713 -0.9096968173980713 -0.9864495396614075 -0.9864495396614075 -0.9096968173980713 -0.7697434425354004 -0.6297901272773743 -0.6297901272773743 -0.7697434425354004 -0.7697434425354004 -0.6297901272773743 -0.7697434425354004 -0.6297901272773743 -0.6297901272773743 -0.7697434425354004 -0.7697434425354004 -0.6297901272773743 -0.9096968173980713 -0.7697434425354004 -0.6297901272773743 -0.9918702840805054 -0.9898375272750854 -1.0000015497207642 -1.0000015497207642 -0.9096968173980713 -0.9096968173980713 -0.9918702840805054 -1.0000015497207642 -1.0000015497207642 -1.0000015497207642 -1.0000015497207642 -1.0000015497207642 -1.0000015497207642 -0.9918702840805054 -1.0000015497207642 -1.0000015497207642 -1.0000015497207642 -1.0000015497207642 -0.7697434425354004 -0.6297901272773743 -0.6297901272773743 -0.7697434425354004 -0.9096968173980713 -0.6297901272773743 -0.7697434425354004 -0.48983675241470337 -0.34988337755203247 -0.34988337755203247 -0.48983675241470337 -0.48983675241470337 -0.48983675241470337 -0.34988337755203247 -0.34988337755203247 -0.48983675241470337 -0.34988337755203247 -0.34988337755203247 -0.48983675241470337 -0.34988337755203247 -0.48983675241470337 -0.20993006229400635 -0.06997668743133545 -0.06997668743133545 -0.20993006229400635 -0.20993006229400635 -0.20993006229400635 -0.06997668743133545 -0.06997668743133545 -0.20993006229400635 -0.06997668743133545 -0.06997668743133545 -0.20993006229400635 -0.06997668743133545 -0.20993006229400635 -0.34988337755203247 -0.48983675241470337 -0.06997668743133545 -0.20993006229400635 -0.48983675241470337 -0.48983675241470337 -0.34988337755203247 -0.34988337755203247 -0.48983675241470337 -0.34988337755203247 -0.34988337755203247 -0.48983675241470337 -0.48983675241470337 -0.34988337755203247 -0.20993006229400635 -0.20993006229400635 -0.06997668743133545 -0.06997668743133545 -0.20993006229400635 -0.06997668743133545 -0.06997668743133545 -0.20993006229400635 -0.20993006229400635 -0.06997668743133545 -0.48983675241470337 -0.34988337755203247 -0.34988337755203247 -0.48983675241470337 -0.48983675241470337 -0.34988337755203247 -0.48983675241470337 -0.34988337755203247 -0.34988337755203247 -0.48983675241470337 -0.48983675241470337 -0.34988337755203247 -0.20993006229400635 -0.06997668743133545 -0.06997668743133545 -0.20993006229400635 -0.20993006229400635 -0.06997668743133545 -0.20993006229400635 -0.06997668743133545 -0.06997668743133545 -0.20993006229400635 -0.20993006229400635 -0.06997668743133545 -0.48983675241470337 -0.34988337755203247 -0.20993006229400635 -0.06997668743133545 -0.48983675241470337 -0.34988337755203247 -0.34988337755203247 -0.48983675241470337 -0.20993006229400635 -0.06997668743133545 -0.06997668743133545 -0.20993006229400635 -0.34988337755203247 -0.48983675241470337 -0.06997668743133545 -0.20993006229400635 -0.9096968173980713 -0.9864495396614075 -0.6297901272773743 -0.7697434425354004 -0.34988337755203247 -0.48983675241470337 -0.06997668743133545 -0.20993006229400635 -0.9096968173980713 -0.7697434425354004 -0.6297901272773743 -0.48983675241470337 -0.34988337755203247 -0.20993006229400635 -0.06997668743133545 -0.9918702840805054 -0.9096968173980713 -0.9096968173980713 -0.9864495396614075 -0.9096968173980713 -0.9864495396614075 -1.0000015497207642 -0.9898375272750854 -0.9918702840805054 -1.0000015497207642 -0.9096968173980713 -0.9096968173980713 -0.7697434425354004 -0.6297901272773743 -0.6297901272773743 -0.7697434425354004 -0.6297901272773743 -0.7697434425354004 -0.6297901272773743 -0.6297901272773743 -0.7697434425354004 -0.7697434425354004 -0.9096968173980713 -0.9864495396614075 -0.6297901272773743 -0.7697434425354004 -0.9864495396614075 -0.9096968173980713 -0.9096968173980713 -0.9864495396614075 -0.9864495396614075 -0.9898375272750854 -1.0000015497207642 -0.9918702840805054 -0.9096968173980713 -0.9096968173980713 -0.9096968173980713 -0.9918702840805054 -0.9898375272750854 -0.9898375272750854 -1.0000015497207642 -0.9096968173980713 -0.9096968173980713 -0.7697434425354004 -0.6297901272773743 -0.6297901272773743 -0.7697434425354004 -0.7697434425354004 -0.6297901272773743 -0.6297901272773743 -0.7697434425354004 -0.7697434425354004 -0.6297901272773743 -0.6297901272773743 -0.6297901272773743 -0.7697434425354004 -0.7697434425354004 -0.9096968173980713 -0.7697434425354004 -0.6297901272773743 -1.0000015497207642 -1.0000015497207642 -1.0000015497207642 -1.0000015497207642 -0.9918702840805054 -0.9918702840805054 -0.9918702840805054 -1.0000015497207642 -0.9096968173980713 -0.9096968173980713 -1.0000015497207642 -1.0000015497207642 -1.0000015497207642 -1.0000015497207642 -1.0000015497207642 -0.9898375272750854 -0.9898375272750854 -1.0000015497207642 -0.92946457862854 -0.92946457862854 -0.7697434425354004 -0.6297901272773743 -0.6297901272773743 -0.7697434425354004 -0.9462009072303772 -1.0000015497207642 -1.0000015497207642 -0.9898375272750854 -0.9898375272750854 -0.9129088521003723 -0.9211867451667786 -1.0000015497207642 -0.9898375272750854 -0.9864495396614075 -0.9898375272750854 -0.9096968173980713 -0.8969863057136536 -0.9096968173980713 -0.7697434425354004 -0.6297901272773743 -0.6297901272773743 -0.7697434425354004 -0.6297901272773743 -0.7697434425354004 -0.6844731569290161 -0.6768262386322021 -0.6048260927200317 -0.6625378727912903 -0.7697434425354004 -0.7697434425354004 -0.7697434425354004 -0.8429322242736816 -0.8568191528320312 -0.8594878911972046 -0.6346092224121094 -0.7697434425354004 -0.5911708474159241 -0.8418614864349365 -0.48983675241470337 -0.34988337755203247 -0.34988337755203247 -0.48983675241470337 -0.34988337755203247 -0.48983675241470337 -0.34988337755203247 -0.34988337755203247 -0.48983675241470337 -0.48983675241470337 -0.20993006229400635 -0.06997668743133545 -0.06997668743133545 -0.20993006229400635 -0.06997668743133545 -0.20993006229400635 -0.06997668743133545 -0.06997668743133545 -0.20993006229400635 -0.20993006229400635 -0.34988337755203247 -0.48983675241470337 -0.06997668743133545 -0.20993006229400635 -0.48983675241470337 -0.34988337755203247 -0.34988337755203247 -0.48983675241470337 -0.48983675241470337 -0.34988337755203247 -0.34988337755203247 -0.48983675241470337 -0.48983675241470337 -0.34988337755203247 -0.34988337755203247 -0.34988337755203247 -0.48983675241470337 -0.48983675241470337 -0.20993006229400635 -0.06997668743133545 -0.06997668743133545 -0.20993006229400635 -0.20993006229400635 -0.06997668743133545 -0.06997668743133545 -0.20993006229400635 -0.20993006229400635 -0.06997668743133545 -0.06997668743133545 -0.06997668743133545 -0.20993006229400635 -0.20993006229400635 -0.48983675241470337 -0.34988337755203247 -0.20993006229400635 -0.06997668743133545 -0.48983675241470337 -0.34988337755203247 -0.34988337755203247 -0.48983675241470337 -0.20993006229400635 -0.06997668743133545 -0.06997668743133545 -0.20993006229400635 -0.48983675241470337 -0.34988337755203247 -0.34988337755203247 -0.48983675241470337 -0.34988337755203247 -0.48983675241470337 -0.34988337755203247 -0.34988337755203247 -0.48419487476348877 -0.48983675241470337 -0.20993006229400635 -0.06997668743133545 -0.06997668743133545 -0.20993006229400635 -0.06997668743133545 -0.20993006229400635 -0.06997668743133545 -0.06997668743133545 -0.20993006229400635 -0.20993006229400635 -0.5270847082138062 -0.9864495396614075 -0.9096968173980713 -0.7697434425354004 -0.6297901272773743 -0.48983675241470337 -0.34988337755203247 -0.20993006229400635 -0.06997668743133545 -0.9898375272750854 -0.9096968173980713 -0.9096968173980713 -0.9918702840805054 -0.9864495396614075 -0.9096968173980713 -0.7697434425354004 -0.6297901272773743 -0.6297901272773743 -0.7697434425354004 -0.7697434425354004 -0.6297901272773743 -0.9864495396614075 -0.9096968173980713 -0.7697434425354004 -0.6297901272773743 -0.9898375272750854 -1.0000015497207642 -1.0000015497207642 -0.9898375272750854 -0.9096968173980713 -0.9096968173980713 -1.0000015497207642 -1.0000015497207642 -1.0000015497207642 -1.0000015497207642 -0.9918702840805054 -1.0000015497207642 -0.9898375272750854 -0.9918702840805054 -0.9096968173980713 -0.9096968173980713 -1.0000015497207642 -0.9918702840805054 -0.9864495396614075 -0.9898375272750854 -0.9096968173980713 -0.9096968173980713 -0.9096968173980713 -0.7697434425354004 -0.7697434425354004 -0.6297901272773743 -0.6297901272773743 -0.7697434425354004 -0.6297901272773743 -0.6297901272773743 -0.7697434425354004 -0.7697434425354004 -0.6297901272773743 -0.6297901272773743 -0.7697434425354004 -0.6297901272773743 -0.7697434425354004 -0.9096968173980713 -0.7697434425354004 -0.6297901272773743 -0.9864495396614075 -0.9918702840805054 -1.0000015497207642 -0.9898375272750854 -0.9096968173980713 -0.9096968173980713 -0.9096968173980713 -1.0000015497207642 -0.9918702840805054 -0.9864495396614075 -0.9918702840805054 -0.9096968173980713 -0.9096968173980713 -0.9096968173980713 -0.9898375272750854 -0.9918702840805054 -0.9864495396614075 -0.9864495396614075 -0.9096968173980713 -0.9096968173980713 -0.9096968173980713 -0.9096968173980713 -0.7697434425354004 -0.6297901272773743 -0.6297901272773743 -0.7697434425354004 -0.7697434425354004 -0.6297901272773743 -0.7697434425354004 -0.6297901272773743 -0.6297901272773743 -0.7697434425354004 -0.6297901272773743 -0.7697434425354004 -0.7697434425354004 -0.6297901272773743 -0.6297901272773743 -0.7697434425354004 -0.7697434425354004 -0.6297901272773743 -0.6297901272773743 -0.7697434425354004 -0.9096968173980713 -0.9864495396614075 -0.6297901272773743 -0.7697434425354004 -0.48983675241470337 -0.34988337755203247 -0.34988337755203247 -0.48983675241470337 -0.48983675241470337 -0.34988337755203247 -0.20993006229400635 -0.06997668743133545 -0.06997668743133545 -0.20993006229400635 -0.20993006229400635 -0.06997668743133545 -0.48983675241470337 -0.34988337755203247 -0.20993006229400635 -0.06997668743133545 -0.48983675241470337 -0.48983675241470337 -0.34988337755203247 -0.34988337755203247 -0.48983675241470337 -0.34988337755203247 -0.34988337755203247 -0.48983675241470337 -0.48983675241470337 -0.34988337755203247 -0.34988337755203247 -0.48983675241470337 -0.34988337755203247 -0.48983675241470337 -0.20993006229400635 -0.20993006229400635 -0.06997668743133545 -0.06997668743133545 -0.20993006229400635 -0.06997668743133545 -0.06997668743133545 -0.20993006229400635 -0.20993006229400635 -0.06997668743133545 -0.06997668743133545 -0.20993006229400635 -0.06997668743133545 -0.20993006229400635 -0.48983675241470337 -0.34988337755203247 -0.20993006229400635 -0.06997668743133545 -0.48983675241470337 -0.34988337755203247 -0.34988337755203247 -0.48983675241470337 -0.48983675241470337 -0.34988337755203247 -0.48983675241470337 -0.34988337755203247 -0.34988337755203247 -0.48983675241470337 -0.34988337755203247 -0.48983675241470337 -0.48983675241470337 -0.34988337755203247 -0.34988337755203247 -0.48983675241470337 -0.48983675241470337 -0.34988337755203247 -0.34988337755203247 -0.48983675241470337 -0.20993006229400635 -0.06997668743133545 -0.06997668743133545 -0.20993006229400635 -0.20993006229400635 -0.06997668743133545 -0.20993006229400635 -0.06997668743133545 -0.06997668743133545 -0.20993006229400635 -0.06997668743133545 -0.20993006229400635 -0.20993006229400635 -0.06997668743133545 -0.06997668743133545 -0.20993006229400635 -0.20993006229400635 -0.06997668743133545 -0.06997668743133545 -0.20993006229400635 -0.34988337755203247 -0.48983675241470337 -0.06997668743133545 -0.20993006229400635 -0.9096968173980713 -0.9864495396614075 -0.6297901272773743 -0.7697434425354004 -0.34988337755203247 -0.48983675241470337 -0.06997668743133545 -0.20993006229400635 -1.0000015497207642 -1.0000015497207642 -1.0000015497207642 -1.0000015497207642 -1.0000015497207642 -0.9898375272750854 -0.9918702840805054 -1.0000015497207642 -0.9455434083938599 -0.9676393270492554 -0.9918702840805054 -1.0000015497207642 -0.9898375272750854 -0.9864495396614075 -0.9096968173980713 -0.9096968173980713 -0.9096968173980713 -1.0000015497207642 -1.0000015497207642 -0.9918702840805054 -0.9898375272750854 -0.9096968173980713 -0.9096968173980713 -0.7697434425354004 -0.6297901272773743 -0.6297901272773743 -0.7697434425354004 -0.7697434425354004 -0.6297901272773743 -0.7697434425354004 -0.6297901272773743 -0.6297901272773743 -0.7697434425354004 -0.9918702840805054 -0.9864495396614075 -0.9918702840805054 -1.0000015497207642 -0.9676393270492554 -0.9209882020950317 -0.9676393270492554 -0.6643283367156982 -0.5943516492843628 -0.6402093172073364 -0.6868603825569153 -0.7697434425354004 -0.7697434425354004 -0.7697434425354004 -0.7697434425354004 -0.6297901272773743 -0.6297901272773743 -0.7697434425354004 -0.6360416412353516 -0.7697434425354004 -0.9209882020950317 -0.8743370771408081 -0.8755667209625244 -0.9209882020950317 -0.8743370771408081 -0.8743370771408081 -0.9864495396614075 -0.6868603825569153 -0.7697434425354004 -0.9864495396614075 -0.593558132648468 -0.9918702840805054 -1.0000015497207642 -0.9918702840805054 -0.9864495396614075 -0.9096968173980713 -0.9096968173980713 -0.9096968173980713 -0.9918702840805054 -0.9864495396614075 -0.9898375272750854 -1.0000015497207642 -0.9676393270492554 -0.9164716601371765 -0.9096968173980713 -0.9918702840805054 -0.9898375272750854 -0.9864495396614075 -0.9864495396614075 -0.9096968173980713 -0.9096968173980713 -0.9096968173980713 -0.9096968173980713 -0.7697434425354004 -0.6297901272773743 -0.6297901272773743 -0.7697434425354004 -0.7697434425354004 -0.6297901272773743 -0.6297901272773743 -0.6297901272773743 -0.7697434425354004 -0.7697434425354004 -0.7697434425354004 -0.6297901272773743 -0.6297901272773743 -0.7697434425354004 -0.7697434425354004 -0.6297901272773743 -0.6297901272773743 -0.7697434425354004 -0.9864495396614075 -0.9096968173980713 -0.7697434425354004 -0.6297901272773743 -0.48983675241470337 -0.34988337755203247 -0.34988337755203247 -0.48983675241470337 -0.48983675241470337 -0.34988337755203247 -0.48983675241470337 -0.34988337755203247 -0.34988337755203247 -0.48983675241470337 -0.20993006229400635 -0.06997668743133545 -0.06997668743133545 -0.20993006229400635 -0.20993006229400635 -0.06997668743133545 -0.20993006229400635 -0.06997668743133545 -0.06997668743133545 -0.20993006229400635 -0.4060814380645752 -0.4060814380645752 -0.48983675241470337 -0.48419487476348877 -0.48983675241470337 -0.34988337755203247 -0.34988337755203247 -0.48983675241470337 -0.34988337755203247 -0.48983675241470337 -0.06997668743133545 -0.06997668743133545 -0.20993006229400635 -0.20993006229400635 -0.20993006229400635 -0.06997668743133545 -0.06997668743133545 -0.20993006229400635 -0.06997668743133545 -0.20993006229400635 -0.35561150312423706 -0.35561150312423706 -0.48983675241470337 -0.4337823987007141 -0.48983675241470337 -0.34988337755203247 -0.34988337755203247 -0.48983675241470337 -0.48983675241470337 -0.34988337755203247 -0.34988337755203247 -0.34988337755203247 -0.48983675241470337 -0.48983675241470337 -0.48983675241470337 -0.34988337755203247 -0.34988337755203247 -0.48983675241470337 -0.48983675241470337 -0.34988337755203247 -0.34988337755203247 -0.48983675241470337 -0.20993006229400635 -0.06997668743133545 -0.06997668743133545 -0.20993006229400635 -0.20993006229400635 -0.06997668743133545 -0.06997668743133545 -0.06997668743133545 -0.20993006229400635 -0.20993006229400635 -0.20993006229400635 -0.06997668743133545 -0.06997668743133545 -0.20993006229400635 -0.20993006229400635 -0.06997668743133545 -0.06997668743133545 -0.20993006229400635 -0.48983675241470337 -0.34988337755203247 -0.20993006229400635 -0.06997668743133545 -0.9864495396614075 -0.9096968173980713 -0.7697434425354004 -0.6297901272773743 -0.48983675241470337 -0.34988337755203247 -0.20993006229400635 -0.06997668743133545 0.06997668743133545 0.20993006229400635 0.20993006229400635 0.06997668743133545 0.06997668743133545 0.06997668743133545 0.20993006229400635 0.20993006229400635 0.06997668743133545 0.20993006229400635 0.20993006229400635 0.06997668743133545 0.20993006229400635 0.06997668743133545 0.34988343715667725 0.48983681201934814 0.48983681201934814 0.34988343715667725 0.34988343715667725 0.34988343715667725 0.48983681201934814 0.48983681201934814 0.34988343715667725 0.48983681201934814 0.48983681201934814 0.34988343715667725 0.48983681201934814 0.34988343715667725 0.20993006229400635 0.06997668743133545 0.48983681201934814 0.34988343715667725 0.06997668743133545 0.06997668743133545 0.20993006229400635 0.20993006229400635 0.06997668743133545 0.20993006229400635 0.20993006229400635 0.06997668743133545 0.06997668743133545 0.20993006229400635 0.34988343715667725 0.34988343715667725 0.48983681201934814 0.48983681201934814 0.34988343715667725 0.48983681201934814 0.48983681201934814 0.34988343715667725 0.34988343715667725 0.48983681201934814 0.06997668743133545 0.20993006229400635 0.20993006229400635 0.06997668743133545 0.06997668743133545 0.20993006229400635 0.06997668743133545 0.20993006229400635 0.20993006229400635 0.06997668743133545 0.06997668743133545 0.20993006229400635 0.34988343715667725 0.48983681201934814 0.48983681201934814 0.34988343715667725 0.34988343715667725 0.48983681201934814 0.34988343715667725 0.48983681201934814 0.48983681201934814 0.34988343715667725 0.34988343715667725 0.48983681201934814 0.06997668743133545 0.20993006229400635 0.34988343715667725 0.48983681201934814 0.06997668743133545 0.20993006229400635 0.20993006229400635 0.06997668743133545 0.34988343715667725 0.48983681201934814 0.48983681201934814 0.34988343715667725 0.20993006229400635 0.06997668743133545 0.48983681201934814 0.34988343715667725 0.6297900676727295 0.7697434425354004 0.7697434425354004 0.6297900676727295 0.6297900676727295 0.6297900676727295 0.7697434425354004 0.7697434425354004 0.6297900676727295 0.7697434425354004 0.7697434425354004 0.6297900676727295 0.7697434425354004 0.6297900676727295 0.9096969366073608 0.9864488840103149 0.9864488840103149 0.9096969366073608 0.9898363351821899 0.9999994039535522 0.9918690919876099 0.9898363351821899 0.9096969366073608 0.9096969366073608 0.9999994039535522 0.9918690919876099 0.9864488840103149 0.9898363351821899 0.9096969366073608 0.9096969366073608 0.9096969366073608 0.7697434425354004 0.6297900676727295 0.9096969366073608 0.6297900676727295 0.6297900676727295 0.7697434425354004 0.7697434425354004 0.6297900676727295 0.7697434425354004 0.7697434425354004 0.6297900676727295 0.6297900676727295 0.7697434425354004 0.9096969366073608 0.9096969366073608 0.9898363351821899 0.9864488840103149 0.9898363351821899 0.9999994039535522 0.9918690919876099 0.9864488840103149 0.9096969366073608 0.9096969366073608 0.9096969366073608 0.6297900676727295 0.7697434425354004 0.7697434425354004 0.6297900676727295 0.6297900676727295 0.7697434425354004 0.6297900676727295 0.7697434425354004 0.7697434425354004 0.6297900676727295 0.6297900676727295 0.7697434425354004 0.9864488840103149 0.9898363351821899 0.9999994039535522 0.9898363351821899 0.9096969366073608 0.9096969366073608 0.9096969366073608 0.9918690919876099 0.9999994039535522 0.9999994039535522 0.9999994039535522 0.9096969366073608 0.9918690919876099 0.9864488840103149 0.9096969366073608 0.9096969366073608 0.9864488840103149 0.6297900676727295 0.7697434425354004 0.9096969366073608 0.6297900676727295 0.7697434425354004 0.7697434425354004 0.6297900676727295 0.9999994039535522 0.9999994039535522 0.9898363351821899 0.9918690919876099 0.9096969366073608 0.9096969366073608 0.9999994039535522 0.9999994039535522 0.9999994039535522 0.9918690919876099 0.9918690919876099 0.9999994039535522 0.9999994039535522 0.9999994039535522 0.9999994039535522 0.9999994039535522 0.9999994039535522 0.9999994039535522 0.7697434425354004 0.6297900676727295 0.9096969366073608 0.20993006229400635 0.06997668743133545 0.48983681201934814 0.34988343715667725 0.7697434425354004 0.6297900676727295 0.9864488840103149 0.9096969366073608 0.06997668743133545 0.20993006229400635 0.34988343715667725 0.48983681201934814 0.6297900676727295 0.7697434425354004 0.9096969366073608 0.06997668743133545 0.20993006229400635 0.20993006229400635 0.06997668743133545 0.20993006229400635 0.06997668743133545 0.20993006229400635 0.20993006229400635 0.06997668743133545 0.06997668743133545 0.34988343715667725 0.48983681201934814 0.48983681201934814 0.34988343715667725 0.48983681201934814 0.34988343715667725 0.48983681201934814 0.48983681201934814 0.34988343715667725 0.34988343715667725 0.20993006229400635 0.06997668743133545 0.48983681201934814 0.34988343715667725 0.06997668743133545 0.20993006229400635 0.20993006229400635 0.06997668743133545 0.06997668743133545 0.20993006229400635 0.20993006229400635 0.06997668743133545 0.06997668743133545 0.20993006229400635 0.20993006229400635 0.20993006229400635 0.06997668743133545 0.06997668743133545 0.34988343715667725 0.48983681201934814 0.48983681201934814 0.34988343715667725 0.34988343715667725 0.48983681201934814 0.48983681201934814 0.34988343715667725 0.34988343715667725 0.48983681201934814 0.48983681201934814 0.48983681201934814 0.34988343715667725 0.34988343715667725 0.06997668743133545 0.20993006229400635 0.34988343715667725 0.48983681201934814 0.06997668743133545 0.20993006229400635 0.20993006229400635 0.06997668743133545 0.34988343715667725 0.48983681201934814 0.48983681201934814 0.34988343715667725 0.06997668743133545 0.20993006229400635 0.20993006229400635 0.06997668743133545 0.20993006229400635 0.06997668743133545 0.20993006229400635 0.20993006229400635 0.06997668743133545 0.06997668743133545 0.34988343715667725 0.48983681201934814 0.48983681201934814 0.34988343715667725 0.48983681201934814 0.34988343715667725 0.48983681201934814 0.49835240840911865 0.34988343715667725 0.34988343715667725 0.6297900676727295 0.7697434425354004 0.7697434425354004 0.6297900676727295 0.7697434425354004 0.6297900676727295 0.7697434425354004 0.7697434425354004 0.6297900676727295 0.6297900676727295 0.9096969366073608 0.9918690919876099 0.9864488840103149 0.9096969366073608 0.9864488840103149 0.9096969366073608 0.9999994039535522 0.9918690919876099 0.9898363351821899 0.9999994039535522 0.9096969366073608 0.9096969366073608 0.7697434425354004 0.6297900676727295 0.9864488840103149 0.9096969366073608 0.6297900676727295 0.7697434425354004 0.7697434425354004 0.6297900676727295 0.6297900676727295 0.7697434425354004 0.7697434425354004 0.6297900676727295 0.6297900676727295 0.7697434425354004 0.7697434425354004 0.7697434425354004 0.6297900676727295 0.6297900676727295 0.9096969366073608 0.9864488840103149 0.9864488840103149 0.9096969366073608 0.9918690919876099 0.9999994039535522 0.9898363351821899 0.9864488840103149 0.9096969366073608 0.9096969366073608 0.9096969366073608 0.9999994039535522 0.9898363351821899 0.9898363351821899 0.9918690919876099 0.9096969366073608 0.9096969366073608 0.6297900676727295 0.7697434425354004 0.9096969366073608 0.6297900676727295 0.7697434425354004 0.7697434425354004 0.6297900676727295 0.9999994039535522 0.9999994039535522 0.9999994039535522 0.9999994039535522 0.9999994039535522 0.9999994039535522 0.9918690919876099 0.9918690919876099 0.9096969366073608 0.9096969366073608 0.9999994039535522 0.9999994039535522 0.9999994039535522 0.9999994039535522 0.9999994039535522 0.9999994039535522 0.9999994039535522 0.9999994039535522 0.6297900676727295 0.7697434425354004 0.7697434425354004 0.6297900676727295 0.7697434425354004 0.6297900676727295 0.7787824869155884 0.7381573915481567 0.6297900676727295 0.6297900676727295 0.9999994039535522 0.9999994039535522 0.9999994039535522 0.9999994039535522 0.9918690919876099 0.9864488840103149 0.9898363351821899 0.9999994039535522 0.9096969366073608 0.9096969366073608 0.9096969366073608 0.9918690919876099 0.9864488840103149 0.9918690919876099 0.9999994039535522 0.9096969366073608 0.9096969366073608 0.9096969366073608 0.7848085165023804 0.8314595222473145 0.8314595222473145 0.9864488840103149 0.9096969366073608 0.6297900676727295 0.5506805181503296 0.06997668743133545 0.20993006229400635 0.34988343715667725 0.48983681201934814 0.6297900676727295 0.7697434425354004 0.9096969366073608 0.9864488840103149 0.06997668743133545 0.20993006229400635 0.20993006229400635 0.06997668743133545 0.06997668743133545 0.20993006229400635 0.34988343715667725 0.48983681201934814 0.48983681201934814 0.34988343715667725 0.34988343715667725 0.48983681201934814 0.06997668743133545 0.20993006229400635 0.34988343715667725 0.48983681201934814 0.06997668743133545 0.06997668743133545 0.20993006229400635 0.20993006229400635 0.06997668743133545 0.20993006229400635 0.20993006229400635 0.06997668743133545 0.06997668743133545 0.20993006229400635 0.20993006229400635 0.06997668743133545 0.20993006229400635 0.06997668743133545 0.34988343715667725 0.34988343715667725 0.48983681201934814 0.48983681201934814 0.34988343715667725 0.48983681201934814 0.48983681201934814 0.34988343715667725 0.34988343715667725 0.48983681201934814 0.48983681201934814 0.34988343715667725 0.48983681201934814 0.34988343715667725 0.06997668743133545 0.20993006229400635 0.34988343715667725 0.48983681201934814 0.06997668743133545 0.20993006229400635 0.20993006229400635 0.06997668743133545 0.06997668743133545 0.20993006229400635 0.06997668743133545 0.20993006229400635 0.20993006229400635 0.06997668743133545 0.20993006229400635 0.06997668743133545 0.06997668743133545 0.20993006229400635 0.20993006229400635 0.06997668743133545 0.06997668743133545 0.20993006229400635 0.20993006229400635 0.06997668743133545 0.34988343715667725 0.48983681201934814 0.48983681201934814 0.34988343715667725 0.34988343715667725 0.48983681201934814 0.34988343715667725 0.48983681201934814 0.48983681201934814 0.34988343715667725 0.48983681201934814 0.34988343715667725 0.34988343715667725 0.48983681201934814 0.48983681201934814 0.34988343715667725 0.34988343715667725 0.48983681201934814 0.48983681201934814 0.34988343715667725 0.20993006229400635 0.06997668743133545 0.48983681201934814 0.34988343715667725 0.6297900676727295 0.7697434425354004 0.7697434425354004 0.6297900676727295 0.6297900676727295 0.7697434425354004 0.9096969366073608 0.9898363351821899 0.9918690919876099 0.9096969366073608 0.9096969366073608 0.9864488840103149 0.6297900676727295 0.7697434425354004 0.9096969366073608 0.9864488840103149 0.6297900676727295 0.6297900676727295 0.7697434425354004 0.7697434425354004 0.6297900676727295 0.7697434425354004 0.7697434425354004 0.6297900676727295 0.6297900676727295 0.7697434425354004 0.7697434425354004 0.6297900676727295 0.7697434425354004 0.6297900676727295 0.9898363351821899 0.9999994039535522 0.9999994039535522 0.9898363351821899 0.9096969366073608 0.9096969366073608 0.9999994039535522 0.9999994039535522 0.9999994039535522 0.9999994039535522 0.9918690919876099 0.9898363351821899 0.9999994039535522 0.9918690919876099 0.9096969366073608 0.9096969366073608 0.9898363351821899 0.9864488840103149 0.9918690919876099 0.9999994039535522 0.9096969366073608 0.9096969366073608 0.9096969366073608 0.6297900676727295 0.7697434425354004 0.9096969366073608 0.6297900676727295 0.7697434425354004 0.7697434425354004 0.6297900676727295 0.6297900676727295 0.7697434425354004 0.6297900676727295 0.7697434425354004 0.7697434425354004 0.6297900676727295 0.7697434425354004 0.6297900676727295 0.6297900676727295 0.7697434425354004 0.7697434425354004 0.6297900676727295 0.6297900676727295 0.7697434425354004 0.7697434425354004 0.6297900676727295 0.9898363351821899 0.9999994039535522 0.9918690919876099 0.9864488840103149 0.9096969366073608 0.9096969366073608 0.9096969366073608 0.9918690919876099 0.9864488840103149 0.9918690919876099 0.9999994039535522 0.9096969366073608 0.9096969366073608 0.9096969366073608 0.9864488840103149 0.9864488840103149 0.9918690919876099 0.9898363351821899 0.9096969366073608 0.9096969366073608 0.9096969366073608 0.9096969366073608 0.7697434425354004 0.6297900676727295 0.9864488840103149 0.9096969366073608 0.20993006229400635 0.06997668743133545 0.48983681201934814 0.34988343715667725 0.7697434425354004 0.6297900676727295 0.9864488840103149 0.9096969366073608 0.06997668743133545 0.20993006229400635 0.20993006229400635 0.06997668743133545 0.06997668743133545 0.20993006229400635 0.06997668743133545 0.20993006229400635 0.20993006229400635 0.06997668743133545 0.34988343715667725 0.48983681201934814 0.48983681201934814 0.34988343715667725 0.34988343715667725 0.48983681201934814 0.34988343715667725 0.48983681201934814 0.48983681201934814 0.34988343715667725 0.20993006229400635 0.20993006229400635 0.06997668743133545 0.06997668743133545 0.06997668743133545 0.20993006229400635 0.2099300622940063