#
TITLE=""
VARIABLES="X", "Y", "Z", "T", "Hw", "Hi", "HTC", "Beta", "TauX", "TauY", "TauZ"
ZONE T="ZONE 1"
NODES=2304
ELEMENTS=4608
DATAPACKING=BLOCK
ZONETYPE=FETRIANGLE
VARLOCATION=([4-11]=CELLCENTERED)
1.25 1.2446529865264893 1.2280495166778564 1.2332532405853271 1.2165063619613647 1.2113027572631836 1.1659409999847412 1.1707532405853271 1.125 1.120187759399414 1.0582224130630493 1.0625 1.0 0.9957224130630493 0.9337571263313293 0.9375 0.875 0.8712571263313293 0.825895369052887 0.8292468190193176 0.7834936380386353 0.7801421880722046 0.763538658618927 0.7667468190193176 0.75 0.7467918395996094 0.763395369052887 0.7667468190193176 0.7834936380386353 0.7801421880722046 0.825503945350647 0.8292468190193176 0.875 0.8712571263313293 0.9332224130630493 0.9375 1.0 0.9957224130630493 1.057687759399414 1.0625 1.125 1.120187759399414 1.1655495166778564 1.1707532405853271 1.2165063619613647 1.2113027572631836 1.2279062271118164 1.2332532405853271 1.239306092262268 1.2233567237854004 1.2071805000305176 1.2227025032043457 1.206099033355713 1.1905770301818848 1.1463828086853027 1.1607372760772705 1.1153755187988281 1.1010210514068604 1.0406506061553955 1.0534101724624634 0.9914448857307434 0.9786853790283203 0.9183149933815002 0.9294795989990234 0.8675142526626587 0.8563497066497803 0.8121554851531982 0.8221524953842163 0.7767907381057739 0.7667937278747559 0.7506175637245178 0.7601872086524963 0.7435836791992188 0.7340140342712402 0.7501901984214783 0.7601872086524963 0.7767907381057739 0.7667937278747559 0.8109879493713379 0.8221524953842163 0.8675142526626587 0.8563497066497803 0.9167200326919556 0.9294795989990234 0.9914448857307434 0.9786853790283203 1.0390557050704956 1.0534101724624634 1.1153755187988281 1.1010210514068604 1.1452152729034424 1.1607372760772705 1.206099033355713 1.1905770301818848 1.206753134727478 1.2227025032043457 1.2074072360992432 1.1811282634735107 1.165656328201294 1.1912310123443604 1.175054907798767 1.1494801044464111 1.1072096824645996 1.1308608055114746 1.0866665840148926 1.0630154609680176 1.0052731037139893 1.0262961387634277 0.9659258127212524 0.9449026584625244 0.8871601819992065 0.9055554866790771 0.8451851010322571 0.8267898559570312 0.7845194339752197 0.8009909391403198 0.7567967176437378 0.7403252124786377 0.7248531579971313 0.7406205534934998 0.7244443893432617 0.7086770534515381 0.7241491079330444 0.7406205534934998 0.7567967176437378 0.7403252124786377 0.7825956344604492 0.8009909391403198 0.8451851010322571 0.8267898559570312 0.8845323324203491 0.9055554866790771 0.9659258127212524 0.9449026584625244 1.0026451349258423 1.0262961387634277 1.0866665840148926 1.0630154609680176 1.1052860021591187 1.1308608055114746 1.175054907798767 1.1494801044464111 1.1649521589279175 1.1912310123443604 1.1548494100570679 1.1186904907226562 1.1041873693466187 1.1393773555755615 1.1239054203033447 1.0887153148651123 1.0490919351577759 1.0816349983215332 1.0393644571304321 1.0068215131759644 0.9526948928833008 0.9816219806671143 0.9238795638084412 0.8949524164199829 0.8408258557319641 0.8661370873451233 0.8083946108818054 0.7830833792686462 0.743459939956665 0.7661241888999939 0.7238537669181824 0.7011895179748535 0.6866863965988159 0.708381712436676 0.6929096579551697 0.6712143421173096 0.6857174634933472 0.708381712436676 0.7238537669181824 0.7011895179748535 0.7408129572868347 0.7661241888999939 0.8083946108818054 0.7830833792686462 0.837209939956665 0.8661370873451233 0.9238795638084412 0.8949524164199829 0.9490790367126465 0.9816219806671143 1.0393644571304321 1.0068215131759644 1.0464448928833008 1.0816349983215332 1.1239054203033447 1.0887153148651123 1.1032185554504395 1.1393773555755615 1.0825316905975342 1.037111759185791 1.0238256454467773 1.068028450012207 1.0535253286361694 1.0093224048614502 0.9730240106582642 1.013901948928833 0.9742785096168518 0.933400571346283 0.8838160037994385 0.920151948928833 0.8660253286361694 0.8296893835067749 0.7801047563552856 0.8118987083435059 0.7577721476554871 0.7259781956672668 0.689679741859436 0.7181487083435059 0.6785253286361694 0.6500563621520996 0.6367701888084412 0.6640221476554871 0.6495189666748047 0.6222670078277588 0.6355531811714172 0.6640221476554871 0.6785253286361694 0.6500563621520996 0.6863547563552856 0.7181487083435059 0.7577721476554871 0.7259781956672668 0.7755627632141113 0.8118987083435059 0.8660253286361694 0.8296893835067749 0.8792740106582642 0.920151948928833 0.9742785096168518 0.933400571346283 0.9696990251541138 1.013901948928833 1.0535253286361694 1.0093224048614502 1.0226085186004639 1.068028450012207 0.9916918277740479 0.9377875924110413 0.9259458184242249 0.9784056544303894 0.965119481086731 0.9126596450805664 0.8803072571754456 0.9288210868835449 0.8925226330757141 0.8440088033676147 0.7998147010803223 0.8429380655288696 0.7933534383773804 0.750230073928833 0.7060359120368958 0.7437688112258911 0.6941842436790466 0.6564513444900513 0.6240988969802856 0.6578857898712158 0.6215873956680298 0.5878005027770996 0.5759587287902832 0.6083012223243713 0.5950150489807129 0.5626725554466248 0.5745143294334412 0.6083012223243713 0.6215873956680298 0.5878005027770996 0.6201528906822205 0.6578857898712158 0.6941842436790466 0.6564513444900513 0.7006454467773438 0.7437688112258911 0.7933534383773804 0.750230073928833 0.7944242358207703 0.8429380655288696 0.8925226330757141 0.8440088033676147 0.8763612508773804 0.9288210868835449 0.965119481086731 0.9126596450805664 0.9245014190673828 0.9784056544303894 0.8838833570480347 0.8224176168441772 0.8122228384017944 0.8720415830612183 0.8601998090744019 0.800381064414978 0.7725282907485962 0.827847421169281 0.7954950332641602 0.7401759028434753 0.7021282911300659 0.7513008713722229 0.7071067094802856 0.6579341292381287 0.6198865175247192 0.6629125475883484 0.6187183856964111 0.575692355632782 0.5478395819664001 0.5863659977912903 0.5540136098861694 0.5154871940612793 0.5052924156188965 0.542171835899353 0.5303300619125366 0.4934506118297577 0.5036454200744629 0.542171835899353 0.5540136098861694 0.5154871940612793 0.5433399677276611 0.5863659977912903 0.6187183856964111 0.575692355632782 0.6137399673461914 0.6629125475883484 0.7071067094802856 0.6579341292381287 0.6959817409515381 0.7513008713722229 0.7954950332641602 0.7401759028434753 0.7680286765098572 0.827847421169281 0.8601998090744019 0.800381064414978 0.8105758428573608 0.8720415830612183 0.7609519362449646 0.6929759383201599 0.6846024990081787 0.750757098197937 0.7405623197555542 0.6744077205657959 0.6515311002731323 0.7127095460891724 0.6848567724227905 0.6236783266067505 0.5924283862113953 0.6468091607093811 0.6087615489959717 0.5543807744979858 0.5231307744979858 0.5707139372825623 0.5326663255691528 0.4850831627845764 0.46220654249191284 0.504813551902771 0.47696080803871155 0.4343537986278534 0.4259803891181946 0.46676599979400635 0.45657116174697876 0.415785551071167 0.4241589903831482 0.46676599979400635 0.47696080803871155 0.4343537986278534 0.4572303891181946 0.504813551902771 0.5326663255691528 0.4850831627845764 0.5163331627845764 0.5707139372825623 0.6087615489959717 0.5543807744979858 0.5856307744979858 0.6468091607093811 0.6848567724227905 0.6236783266067505 0.6465549468994141 0.7127095460891724 0.7405623197555542 0.6744077205657959 0.6827811002731323 0.750757098197937 0.6249999403953552 0.5516772270202637 0.5452685356140137 0.616626501083374 0.6082531213760376 0.5368950963020325 0.5193861126899719 0.585376501083374 0.5624999403953552 0.4965095520019531 0.4725918173789978 0.5312499403953552 0.4999999701976776 0.4413418173789978 0.4174240827560425 0.4687499701976776 0.4374999701976776 0.3861740827560425 0.36866509914398193 0.4146233797073364 0.39174678921699524 0.34578850865364075 0.33937978744506836 0.3833733797073364 0.3749999701976776 0.33100634813308716 0.33741509914398193 0.3833733797073364 0.39174678921699524 0.34578850865364075 0.3632974922657013 0.4146233797073364 0.4374999701976776 0.3861740827560425 0.4100918173789978 0.4687499701976776 0.4999999701976776 0.4413418173789978 0.4652595520019531 0.5312499403953552 0.5624999403953552 0.4965095520019531 0.5140185356140137 0.585376501083374 0.6082531213760376 0.5368950963020325 0.5433038473129272 0.616626501083374 0.4783545732498169 0.4009392261505127 0.3966048061847687 0.4719458222389221 0.46553710103034973 0.3901960849761963 0.3783542811870575 0.4480281174182892 0.43051913380622864 0.36084529757499695 0.3446691036224365 0.4066013991832733 0.382683664560318 0.3207513689994812 0.3045751750469208 0.35876592993736267 0.33484819531440735 0.28065744042396545 0.26881563663482666 0.3173392117023468 0.29983022809028625 0.2513066530227661 0.24697226285934448 0.29342150688171387 0.2870127558708191 0.2405635267496109 0.24489793181419373 0.29342150688171387 0.29983022809028625 0.2513066530227661 0.2631484568119049 0.3173392117023468 0.33484819531440735 0.28065744042396545 0.2968336343765259 0.35876592993736267 0.382683664560318 0.3207513689994812 0.3369275629520416 0.4066013991832733 0.43051913380622864 0.36084529757499695 0.37268710136413574 0.4480281174182892 0.46553710103034973 0.3901960849761963 0.3945304751396179 0.4719458222389221 0.3235238492488861 0.24334067106246948 0.24115478992462158 0.3191894292831421 0.31485503911972046 0.23682036995887756 0.23084840178489685 0.30301326513290405 0.29117146134376526 0.21900661289691925 0.21084873378276825 0.27499526739120483 0.2588190734386444 0.19467253983020782 0.18651466071605682 0.24264287948608398 0.22646668553352356 0.1703384667634964 0.1643664836883545 0.21462488174438477 0.20278309285640717 0.1525246948003769 0.1503387987613678 0.19844868779182434 0.1941142976284027 0.14600440859794617 0.14819028973579407 0.19844868779182434 0.20278309285640717 0.1525246948003769 0.1584966778755188 0.21462488174438477 0.22646668553352356 0.1703384667634964 0.1784963458776474 0.24264287948608398 0.2588190734386444 0.19467253983020782 0.20283041894435883 0.27499526739120483 0.29117146134376526 0.21900661289691925 0.22497859597206116 0.30301326513290405 0.31485503911972046 0.23682036995887756 0.23900628089904785 0.3191894292831421 0.16315750777721405 0.0815787985920906 0.0815787985920906 0.16097161173820496 0.15878571569919586 0.07939290255308151 0.07939290255308151 0.15281373262405396 0.14684176445007324 0.0734209269285202 0.0734209194779396 0.13868388533592224 0.13052600622177124 0.0652630403637886 0.06526303291320801 0.12236812710762024 0.11421025544404984 0.057105161249637604 0.057105157524347305 0.10823827981948853 0.10226629674434662 0.0511331781744957 0.0511331781744957 0.10008040070533752 0.09789450466632843 0.0489472821354866 0.0489472821354866 0.10008040070533752 0.10226629674434662 0.0511331781744957 0.051133181899785995 0.10823827981948853 0.11421025544404984 0.057105161249637604 0.0571051649749279 0.12236812710762024 0.13052600622177124 0.0652630403637886 0.0652630478143692 0.13868388533592224 0.14684176445007324 0.0734209269285202 0.0734209269285202 0.15281373262405396 0.15878571569919586 0.07939290255308151 0.07939290255308151 0.16097161173820496 9.437237480369731e-08 -0.08157890290021896 -0.07939300686120987 9.310802795425843e-08 9.18436739993922e-08 -0.07939301431179047 -0.07342101633548737 8.838940601663126e-08 8.493513803387032e-08 -0.07342102378606796 -0.06526312977075577 8.02165232016705e-08 7.549790126404332e-08 -0.06526312977075577 -0.05710523575544357 7.077927932641614e-08 6.606066449421633e-08 -0.05710523948073387 -0.05113324150443077 6.260639651145539e-08 5.915212497598077e-08 -0.05113324522972107 -0.04894734546542168 5.788777457382821e-08 5.662342772438933e-08 -0.048947349190711975 -0.05113324895501137 5.788777457382821e-08 5.915212497598077e-08 -0.05113324522972107 -0.05710524320602417 6.260639651145539e-08 6.606066449421633e-08 -0.05710523948073387 -0.06526312977075577 7.077927932641614e-08 7.549790126404332e-08 -0.06526312977075577 -0.07342102378606796 8.02165232016705e-08 8.493513803387032e-08 -0.07342102378606796 -0.07939302176237106 8.838940601663126e-08 9.18436739993922e-08 -0.07939301431179047 -0.08157891035079956 9.310802795425843e-08 -0.16315791010856628 -0.24334077537059784 -0.2390063852071762 -0.1609720140695572 -0.1587861180305481 -0.23682048916816711 -0.22497870028018951 -0.152814120054245 -0.1468421220779419 -0.2190067023038864 -0.20283052325248718 -0.1386842280626297 -0.1305263340473175 -0.194672629237175 -0.17849645018577576 -0.12236844003200531 -0.11421054601669312 -0.17033855617046356 -0.15849676728248596 -0.10823854804039001 -0.10226655006408691 -0.15252476930618286 -0.14819037914276123 -0.10008065402507782 -0.09789475053548813 -0.14600446820259094 -0.15033885836601257 -0.10008065402507782 -0.10226655006408691 -0.15252476930618286 -0.16436655819416046 -0.10823854804039001 -0.11421054601669312 -0.17033855617046356 -0.1865147352218628 -0.12236844003200531 -0.1305263340473175 -0.194672629237175 -0.21084880828857422 -0.1386842280626297 -0.1468421220779419 -0.2190067023038864 -0.230848491191864 -0.152814120054245 -0.1587861180305481 -0.23682048916816711 -0.24115487933158875 -0.1609720140695572 -0.3235236406326294 -0.400939017534256 -0.3945302963256836 -0.31918925046920776 -0.31485486030578613 -0.39019590616226196 -0.3726869225502014 -0.3030130863189697 -0.29117128252983093 -0.3608451187610626 -0.3369274139404297 -0.2749950885772705 -0.25881892442703247 -0.32075121998786926 -0.29683351516723633 -0.24264274537563324 -0.226466566324234 -0.2806573212146759 -0.26314833760261536 -0.21462476253509521 -0.20278297364711761 -0.25130653381347656 -0.24489781260490417 -0.19844858348369598 -0.19411419332027435 -0.24056342244148254 -0.24697214365005493 -0.19844858348369598 -0.20278297364711761 -0.25130653381347656 -0.2688155174255371 -0.21462476253509521 -0.226466566324234 -0.2806573212146759 -0.30457502603530884 -0.24264274537563324 -0.25881892442703247 -0.32075121998786926 -0.3446689248085022 -0.2749950885772705 -0.29117128252983093 -0.3608451187610626 -0.37835410237312317 -0.3030130863189697 -0.31485486030578613 -0.39019590616226196 -0.39660462737083435 -0.31918925046920776 -0.47835439443588257 -0.5516771078109741 -0.5433037281036377 -0.4719456434249878 -0.4655369222164154 -0.5368949770927429 -0.5140183568000793 -0.44802793860435486 -0.4305189549922943 -0.4965093731880188 -0.4652594029903412 -0.4066012501716614 -0.38268351554870605 -0.44134169816970825 -0.41009169816970825 -0.35876578092575073 -0.3348480761051178 -0.38617396354675293 -0.36329740285873413 -0.31733909249305725 -0.2998301088809967 -0.3457884192466736 -0.3374149799346924 -0.2934213876724243 -0.28701263666152954 -0.33100625872612 -0.3393796682357788 -0.2934213876724243 -0.2998301088809967 -0.3457884192466736 -0.3686649799346924 -0.31733909249305725 -0.3348480761051178 -0.38617396354675293 -0.41742396354675293 -0.35876578092575073 -0.38268351554870605 -0.44134169816970825 -0.47259166836738586 -0.4066012501716614 -0.4305189549922943 -0.4965093731880188 -0.5193859934806824 -0.44802793860435486 -0.4655369222164154 -0.5368949770927429 -0.5452683568000793 -0.4719456434249878 -0.6249998211860657 -0.6929757595062256 -0.6827809810638428 -0.6166263818740845 -0.608253002166748 -0.6744076013565063 -0.6465548276901245 -0.5853763818740845 -0.5624998211860657 -0.6236782073974609 -0.5856306552886963 -0.5312498211860657 -0.49999985098838806 -0.5543806552886963 -0.5163330435752869 -0.46874988079071045 -0.43749988079071045 -0.48508307337760925 -0.4572302997112274 -0.41462329030036926 -0.3917466998100281 -0.43435370922088623 -0.42415887117385864 -0.38337329030036926 -0.37499988079071045 -0.4157854914665222 -0.4259802997112274 -0.38337329030036926 -0.3917466998100281 -0.43435370922088623 -0.46220648288726807 -0.41462329030036926 -0.43749988079071045 -0.48508307337760925 -0.5231306552886963 -0.46874988079071045 -0.49999985098838806 -0.5543806552886963 -0.5924282073974609 -0.5312498211860657 -0.5624998211860657 -0.6236782073974609 -0.6515309810638428 -0.5853763818740845 -0.608253002166748 -0.6744076013565063 -0.6846023797988892 -0.6166263818740845 -0.7609517574310303 -0.8224177360534668 -0.8105759620666504 -0.7507569789886475 -0.7405621409416199 -0.8003811240196228 -0.768028736114502 -0.712709367275238 -0.6848565936088562 -0.7401759624481201 -0.6959817409515381 -0.6468089818954468 -0.6087614297866821 -0.6579341888427734 -0.6137399673461914 -0.5707138776779175 -0.5326662659645081 -0.5756924152374268 -0.5433400273323059 -0.5048134922981262 -0.4769607186317444 -0.5154872536659241 -0.5036454200744629 -0.4667658805847168 -0.4565710723400116 -0.4934506416320801 -0.5052924156188965 -0.4667658805847168 -0.4769607186317444 -0.5154872536659241 -0.5478396415710449 -0.5048134922981262 -0.5326662659645081 -0.5756924152374268 -0.6198866367340088 -0.5707138776779175 -0.6087614297866821 -0.6579341888427734 -0.7021284103393555 -0.6468089818954468 -0.6848565936088562 -0.7401759624481201 -0.772528350353241 -0.712709367275238 -0.7405621409416199 -0.8003811240196228 -0.812222957611084 -0.7507569789886475 -0.8838837146759033 -0.937787652015686 -0.9245015382766724 -0.8720419406890869 -0.8602001070976257 -0.912659764289856 -0.8763612508773804 -0.8278477191925049 -0.795495331287384 -0.8440089225769043 -0.794424295425415 -0.7513011693954468 -0.7071069478988647 -0.7502301335334778 -0.7006455659866333 -0.6629127264022827 -0.6187185645103455 -0.6564513444900513 -0.6201529502868652 -0.5863661766052246 -0.5540137887001038 -0.5878005027770996 -0.5745143890380859 -0.5421719551086426 -0.5303301811218262 -0.5626726150512695 -0.5759587287902832 -0.5421719551086426 -0.5540137887001038 -0.5878005027770996 -0.6240990161895752 -0.5863661766052246 -0.6187185645103455 -0.6564513444900513 -0.7060359716415405 -0.6629127264022827 -0.7071069478988647 -0.7502301335334778 -0.7998147010803223 -0.7513011693954468 -0.795495331287384 -0.8440089225769043 -0.8803073167800903 -0.8278477191925049 -0.8602001070976257 -0.912659764289856 -0.9259458780288696 -0.8720419406890869 -0.9916916489601135 -1.0371116399765015 -1.0226083993911743 -0.9784054756164551 -0.9651193618774414 -1.0093222856521606 -0.9696989059448242 -0.9288209080696106 -0.8925224542617798 -0.9334004521369934 -0.8792738914489746 -0.8429378867149353 -0.7933533191680908 -0.8296892642974854 -0.7755627036094666 -0.7437687516212463 -0.6941841840744019 -0.7259781360626221 -0.6863547563552856 -0.657885730266571 -0.6215872764587402 -0.6500562429428101 -0.6355531215667725 -0.6083011627197266 -0.5950149893760681 -0.6222670078277588 -0.6367701292037964 -0.6083011627197266 -0.6215872764587402 -0.6500562429428101 -0.6896796822547913 -0.657885730266571 -0.6941841840744019 -0.7259781360626221 -0.7801047563552856 -0.7437687516212463 -0.7933533191680908 -0.8296892642974854 -0.8838158845901489 -0.8429378867149353 -0.8925224542617798 -0.9334004521369934 -0.9730238318443298 -0.9288209080696106 -0.9651193618774414 -1.0093222856521606 -1.0238254070281982 -0.9784054756164551 -1.0825315713882446 -1.1186904907226562 -1.10321843624115 -1.068028450012207 -1.0535252094268799 -1.0887153148651123 -1.0464448928833008 -1.0139018297195435 -0.974278450012207 -1.0068213939666748 -0.9490789771080017 -0.9201518297195435 -0.8660252690315247 -0.8949524164199829 -0.837209939956665 -0.8118987083435059 -0.7577720880508423 -0.7830833196640015 -0.7408128976821899 -0.7181487083435059 -0.6785252690315247 -0.7011895179748535 -0.6857174634933472 -0.6640220880508423 -0.6495189666748047 -0.6712142825126648 -0.6866863369941711 -0.6640220880508423 -0.6785252690315247 -0.7011895179748535 -0.743459939956665 -0.7181487083435059 -0.7577720880508423 -0.7830833196640015 -0.8408257961273193 -0.8118987083435059 -0.8660252690315247 -0.8949524164199829 -0.9526948928833008 -0.9201518297195435 -0.974278450012207 -1.0068213939666748 -1.0490918159484863 -1.0139018297195435 -1.0535252094268799 -1.0887153148651123 -1.104187250137329 -1.068028450012207 -1.1548494100570679 -1.1811283826828003 -1.164952278137207 -1.1393773555755615 -1.1239053010940552 -1.1494801044464111 -1.105285882949829 -1.0816348791122437 -1.0393644571304321 -1.0630154609680176 -1.0026451349258423 -0.9816219806671143 -0.9238795042037964 -0.9449026584625244 -0.8845323324203491 -0.8661370277404785 -0.8083945512771606 -0.8267898559570312 -0.7825956344604492 -0.7661241292953491 -0.7238537073135376 -0.7403252124786377 -0.7241490483283997 -0.7083816528320312 -0.6929095983505249 -0.7086769938468933 -0.7248531579971313 -0.7083816528320312 -0.7238537073135376 -0.7403252124786377 -0.7845194339752197 -0.7661241292953491 -0.8083945512771606 -0.8267898559570312 -0.8871601819992065 -0.8661370277404785 -0.9238795042037964 -0.9449026584625244 -1.0052731037139893 -0.9816219806671143 -1.0393644571304321 -1.0630154609680176 -1.1072096824645996 -1.0816348791122437 -1.1239053010940552 -1.1494801044464111 -1.165656328201294 -1.1393773555755615 -1.2074073553085327 -1.2233567237854004 -1.206753134727478 -1.1912312507629395 -1.1750550270080566 -1.1905770301818848 -1.1452152729034424 -1.1308608055114746 -1.0866665840148926 -1.1010210514068604 -1.0390557050704956 -1.0262962579727173 -0.9659258723258972 -0.9786853790283203 -0.9167200326919556 -0.9055554866790771 -0.8451851606369019 -0.8563497066497803 -0.8109879493713379 -0.8009909391403198 -0.7567967772483826 -0.7667937278747559 -0.7501901984214783 -0.7406206130981445 -0.7244443893432617 -0.7340140342712402 -0.7506175637245178 -0.7406206130981445 -0.7567967772483826 -0.7667937278747559 -0.8121554851531982 -0.8009909391403198 -0.8451851606369019 -0.8563497066497803 -0.9183149933815002 -0.9055554866790771 -0.9659258723258972 -0.9786853790283203 -1.0406506061553955 -1.0262962579727173 -1.0866665840148926 -1.1010210514068604 -1.1463828086853027 -1.1308608055114746 -1.1750550270080566 -1.1905770301818848 -1.2071805000305176 -1.1912312507629395 -1.2393059730529785 -1.2446529865264893 -1.2279062271118164 -1.2227025032043457 -1.2060989141464233 -1.211302638053894 -1.1655495166778564 -1.160737156867981 -1.1153753995895386 -1.120187759399414 -1.057687759399414 -1.0534100532531738 -0.9914448261260986 -0.9957224130630493 -0.9332224130630493 -0.9294795393943787 -0.8675142526626587 -0.8712571263313293 -0.825503945350647 -0.8221524953842163 -0.7767907381057739 -0.7801421880722046 -0.763395369052887 -0.7601871490478516 -0.743583619594574 -0.7467918395996094 -0.7635385990142822 -0.7601871490478516 -0.7767907381057739 -0.7801421880722046 -0.825895369052887 -0.8221524953842163 -0.8675142526626587 -0.8712571263313293 -0.9337571263313293 -0.9294795393943787 -0.9914448261260986 -0.9957224130630493 -1.0582224130630493 -1.0534100532531738 -1.1153753995895386 -1.120187759399414 -1.1659408807754517 -1.160737156867981 -1.2060989141464233 -1.211302638053894 -1.2280495166778564 -1.2227025032043457 -1.25 -1.2446529865264893 -1.2280495166778564 -1.2332532405853271 -1.2165063619613647 -1.211302638053894 -1.1659408807754517 -1.1707532405853271 -1.125 -1.120187759399414 -1.0582224130630493 -1.0625 -1.0 -0.9957224130630493 -0.9337571263313293 -0.9375 -0.875 -0.8712571263313293 -0.825895369052887 -0.8292468190193176 -0.7834936380386353 -0.7801421880722046 -0.7635385990142822 -0.7667468190193176 -0.75 -0.7467918395996094 -0.763395369052887 -0.7667468190193176 -0.7834936380386353 -0.7801421880722046 -0.825503945350647 -0.8292468190193176 -0.875 -0.8712571263313293 -0.9332224130630493 -0.9375 -1.0 -0.9957224130630493 -1.057687759399414 -1.0625 -1.125 -1.120187759399414 -1.1655495166778564 -1.1707532405853271 -1.2165063619613647 -1.211302638053894 -1.2279062271118164 -1.2332532405853271 -1.2393059730529785 -1.2233567237854004 -1.2071805000305176 -1.2227025032043457 -1.2060989141464233 -1.1905770301818848 -1.1463828086853027 -1.160737156867981 -1.1153753995895386 -1.1010210514068604 -1.0406506061553955 -1.0534100532531738 -0.9914448261260986 -0.9786853790283203 -0.9183149933815002 -0.9294795393943787 -0.8675142526626587 -0.8563497066497803 -0.8121554851531982 -0.8221524953842163 -0.7767907381057739 -0.7667937278747559 -0.7506175637245178 -0.7601871490478516 -0.743583619594574 -0.7340140342712402 -0.7501901984214783 -0.7601871490478516 -0.7767907381057739 -0.7667937278747559 -0.8109879493713379 -0.8221524953842163 -0.8675142526626587 -0.8563497066497803 -0.9167200326919556 -0.9294795393943787 -0.9914448261260986 -0.9786853790283203 -1.0390557050704956 -1.0534100532531738 -1.1153753995895386 -1.1010210514068604 -1.1452152729034424 -1.160737156867981 -1.2060989141464233 -1.1905770301818848 -1.206753134727478 -1.2227025032043457 -1.2074073553085327 -1.1811285018920898 -1.1656564474105835 -1.1912312507629395 -1.1750550270080566 -1.1494803428649902 -1.1072099208831787 -1.1308608055114746 -1.0866665840148926 -1.0630156993865967 -1.0052731037139893 -1.0262962579727173 -0.9659258723258972 -0.944902777671814 -0.8871603012084961 -0.9055554866790771 -0.8451851606369019 -0.8267899751663208 -0.7845194935798645 -0.8009909391403198 -0.7567967772483826 -0.7403253316879272 -0.7248532772064209 -0.7406206130981445 -0.7244443893432617 -0.7086770534515381 -0.7241491079330444 -0.7406206130981445 -0.7567967772483826 -0.7403253316879272 -0.7825957536697388 -0.8009909391403198 -0.8451851606369019 -0.8267899751663208 -0.8845324516296387 -0.9055554866790771 -0.9659258723258972 -0.944902777671814 -1.0026452541351318 -1.0262962579727173 -1.0866665840148926 -1.0630156993865967 -1.1052861213684082 -1.1308608055114746 -1.1750550270080566 -1.1494803428649902 -1.164952278137207 -1.1912312507629395 -1.154849648475647 -1.1186907291412354 -1.1041876077651978 -1.1393775939941406 -1.1239055395126343 -1.0887155532836914 -1.0490920543670654 -1.0816351175308228 -1.0393646955490112 -1.006821632385254 -0.9526951313018799 -0.9816222190856934 -0.9238796830177307 -0.8949525952339172 -0.8408260345458984 -0.8661372065544128 -0.808394730091095 -0.7830835580825806 -0.7434600591659546 -0.7661242485046387 -0.7238538265228271 -0.7011896371841431 -0.6866865158081055 -0.7083817720413208 -0.6929097771644592 -0.6712144613265991 -0.6857175827026367 -0.7083817720413208 -0.7238538265228271 -0.7011896371841431 -0.7408130764961243 -0.7661242485046387 -0.808394730091095 -0.7830835580825806 -0.8372101187705994 -0.8661372065544128 -0.9238796830177307 -0.8949525952339172 -0.949079155921936 -0.9816222190856934 -1.0393646955490112 -1.006821632385254 -1.0464451313018799 -1.0816351175308228 -1.1239055395126343 -1.0887155532836914 -1.1032187938690186 -1.1393775939941406 -1.0825319290161133 -1.037111759185791 -1.0238256454467773 -1.0680286884307861 -1.0535255670547485 -1.0093224048614502 -0.9730240106582642 -1.013902187347412 -0.9742786884307861 -0.933400571346283 -0.8838160037994385 -0.9201520681381226 -0.8660255074501038 -0.8296893835067749 -0.7801048755645752 -0.811898946762085 -0.7577723264694214 -0.7259782552719116 -0.6896798014640808 -0.7181488871574402 -0.678525447845459 -0.6500563621520996 -0.6367702484130859 -0.6640223264694214 -0.649519145488739 -0.6222670674324036 -0.635553240776062 -0.6640223264694214 -0.678525447845459 -0.6500563621520996 -0.6863548159599304 -0.7181488871574402 -0.7577723264694214 -0.7259782552719116 -0.7755628228187561 -0.811898946762085 -0.8660255074501038 -0.8296893835067749 -0.8792740106582642 -0.9201520681381226 -0.9742786884307861 -0.933400571346283 -0.9696990251541138 -1.013902187347412 -1.0535255670547485 -1.0093224048614502 -1.0226086378097534 -1.0680286884307861 -0.9916916489601135 -0.937787652015686 -0.9259458780288696 -0.9784054756164551 -0.9651193618774414 -0.912659764289856 -0.8803073167800903 -0.9288209080696106 -0.8925224542617798 -0.8440089225769043 -0.7998147010803223 -0.8429378867149353 -0.7933533191680908 -0.7502301335334778 -0.7060359716415405 -0.7437687516212463 -0.6941841840744019 -0.6564513444900513 -0.6240990161895752 -0.657885730266571 -0.6215872764587402 -0.5878005027770996 -0.5759587287902832 -0.6083011627197266 -0.5950149893760681 -0.5626726150512695 -0.5745143890380859 -0.6083011627197266 -0.6215872764587402 -0.5878005027770996 -0.6201529502868652 -0.657885730266571 -0.6941841840744019 -0.6564513444900513 -0.7006455659866333 -0.7437687516212463 -0.7933533191680908 -0.7502301335334778 -0.794424295425415 -0.8429378867149353 -0.8925224542617798 -0.8440089225769043 -0.8763612508773804 -0.9288209080696106 -0.9651193618774414 -0.912659764289856 -0.9245015382766724 -0.9784054756164551 -0.8838837146759033 -0.8224179744720459 -0.8122231960296631 -0.8720419406890869 -0.8602001070976257 -0.8003814220428467 -0.7725285887718201 -0.8278477191925049 -0.795495331287384 -0.7401762008666992 -0.7021285891532898 -0.7513011693954468 -0.7071069478988647 -0.6579344272613525 -0.6198867559432983 -0.6629127264022827 -0.6187185645103455 -0.5756925940513611 -0.5478398203849792 -0.5863661766052246 -0.5540137887001038 -0.5154874324798584 -0.5052925944328308 -0.5421719551086426 -0.5303301811218262 -0.493450790643692 -0.5036455988883972 -0.5421719551086426 -0.5540137887001038 -0.5154874324798584 -0.5433402061462402 -0.5863661766052246 -0.6187185645103455 -0.5756925940513611 -0.6137402057647705 -0.6629127264022827 -0.7071069478988647 -0.6579344272613525 -0.6959819793701172 -0.7513011693954468 -0.795495331287384 -0.7401762008666992 -0.768028974533081 -0.8278477191925049 -0.8602001070976257 -0.8003814220428467 -0.8105762004852295 -0.8720419406890869 -0.7609522938728333 -0.6929760575294495 -0.6846026182174683 -0.7507574558258057 -0.7405626773834229 -0.6744078397750854 -0.6515312194824219 -0.712709903717041 -0.6848570704460144 -0.62367844581604 -0.59242844581604 -0.646809458732605 -0.6087618470191956 -0.5543808341026306 -0.5231308937072754 -0.5707142353057861 -0.5326666235923767 -0.4850832521915436 -0.4622066617012024 -0.5048138499259949 -0.47696104645729065 -0.43435388803482056 -0.42598044872283936 -0.46676623821258545 -0.45657140016555786 -0.41578564047813416 -0.42415904998779297 -0.46676623821258545 -0.47696104645729065 -0.43435388803482056 -0.45723044872283936 -0.5048138499259949 -0.5326666235923767 -0.4850832521915436 -0.5163332223892212 -0.5707142353057861 -0.6087618470191956 -0.5543808341026306 -0.5856308341026306 -0.6468094587326