#
TITLE="FE Surface Data ASCII"
VARIABLES="X", "Y", "Z", "T", "Hw", "Hi", "HTC", "Beta", "TauX", "TauY", "TauZ"
ZONE T="ZONE 1"
NODES=388
ELEMENTS=384
DATAPACKING=BLOCK
ZONETYPE=FETRIANGLE
VARLOCATION=([4-11]=CELLCENTERED)
0.352707 0.352586 0.352452 0.352302 0.352130 0.351928 0.351689 0.351401 0.351051 0.350622 0.350091 0.349433 0.348615 0.347595 0.346325 0.344747 0.342795 0.340390 0.337448 0.333874 0.329573 0.324446 0.318399 0.311352 0.303239 0.294022 0.283694 0.272283 0.259862 0.246543 0.232476 0.217850 0.202874 0.187777 0.172791 0.158140 0.144030 0.130639 0.118110 0.106548 0.096018 0.086546 0.078124 0.070718 0.064265 0.058693 0.053915 0.049843 0.046389 0.043466 0.040998 0.038913 0.037147 0.035647 0.034365 0.033260 0.032300 0.031454 0.030698 0.030012 0.029327 0.028574 0.027758 0.026881 0.025953 0.024975 0.023956 0.022905 0.021830 0.020737 0.019634 0.018528 0.017425 0.016332 0.015254 0.014195 0.013160 0.012151 0.011173 0.010225 0.009312 0.008433 0.007590 0.006784 0.006016 0.005286 0.002247 0.001772 0.001346 0.000974 0.000657 0.000400 0.000205 0.000074 0.000008 0.000008 0.000073 0.000204 0.000399 0.000656 0.000973 0.001346 0.001771 0.002246 0.002768 0.003335 0.003944 0.004594 0.005285 0.006015 0.006783 0.007589 0.008432 0.009310 0.010224 0.011171 0.012150 0.013159 0.014194 0.015253 0.016331 0.017423 0.018527 0.019633 0.020736 0.021829 0.022904 0.023955 0.024973 0.025951 0.026880 0.027757 0.028573 0.029326 0.030011 0.030697 0.031453 0.032299 0.033259 0.034364 0.035646 0.037146 0.038912 0.040997 0.043465 0.046387 0.049841 0.053914 0.058691 0.064263 0.070716 0.078123 0.086544 0.096016 0.106546 0.118108 0.130637 0.144029 0.158139 0.172790 0.187776 0.202873 0.217849 0.232476 0.246542 0.259862 0.272283 0.283693 0.294022 0.303239 0.311352 0.318400 0.324446 0.329573 0.333875 0.337448 0.340390 0.342795 0.344747 0.346325 0.347595 0.348615 0.349433 0.350091 0.350622 0.351051 0.351401 0.351689 0.351928 0.352130 0.352302 0.352452 0.352586 0.352707 0.352707 0.352586 0.352452 0.352302 0.352130 0.351928 0.351689 0.351401 0.351051 0.350622 0.350091 0.349433 0.348615 0.347595 0.346325 0.344747 0.342795 0.340390 0.337448 0.333874 0.329573 0.324446 0.318399 0.311352 0.303239 0.294022 0.283694 0.272283 0.259862 0.246543 0.232476 0.217850 0.202874 0.187777 0.172791 0.158140 0.144030 0.130639 0.118110 0.106548 0.096018 0.086546 0.078124 0.070718 0.064265 0.058693 0.053915 0.049843 0.046389 0.043466 0.040998 0.038913 0.037147 0.035647 0.034365 0.033260 0.032300 0.031454 0.030698 0.030012 0.029327 0.028574 0.027758 0.026881 0.025953 0.024975 0.023956 0.022905 0.021830 0.020737 0.019634 0.018528 0.017425 0.016332 0.015254 0.014195 0.013160 0.012151 0.011173 0.010225 0.009312 0.008433 0.007590 0.006784 0.006016 0.005286 0.002247 0.001772 0.001346 0.000974 0.000657 0.000400 0.000205 0.000074 0.000008 0.000008 0.000073 0.000204 0.000399 0.000656 0.000973 0.001346 0.001771 0.002246 0.002768 0.003335 0.003944 0.004594 0.005285 0.006015 0.006783 0.007589 0.008432 0.009310 0.010224 0.011171 0.012150 0.013159 0.014194 0.015253 0.016331 0.017423 0.018527 0.019633 0.020736 0.021829 0.022904 0.023955 0.024973 0.025951 0.026880 0.027757 0.028573 0.029326 0.030011 0.030697 0.031453 0.032299 0.033259 0.034364 0.035646 0.037146 0.038912 0.040997 0.043465 0.046387 0.049841 0.053914 0.058691 0.064263 0.070716 0.078123 0.086544 0.096016 0.106546 0.118108 0.130637 0.144029 0.158139 0.172790 0.187776 0.202873 0.217849 0.232476 0.246542 0.259862 0.272283 0.283693 0.294022 0.303239 0.311352 0.318400 0.324446 0.329573 0.333875 0.337448 0.340390 0.342795 0.344747 0.346325 0.347595 0.348615 0.349433 0.350091 0.350622 0.351051 0.351401 0.351689 0.351928 0.352130 0.352302 0.352452 0.352586 0.352707 
-0.000063 -0.000085 -0.000108 -0.000135 -0.000166 -0.000202 -0.000244 -0.000295 -0.000357 -0.000433 -0.000527 -0.000643 -0.000787 -0.000967 -0.001189 -0.001463 -0.001800 -0.002213 -0.002713 -0.003315 -0.004028 -0.004866 -0.005836 -0.006943 -0.008185 -0.009556 -0.011045 -0.012628 -0.014282 -0.015971 -0.017657 -0.019299 -0.020851 -0.022270 -0.023519 -0.024563 -0.025381 -0.025962 -0.026309 -0.026434 -0.026363 -0.026127 -0.025764 -0.025302 -0.024789 -0.024243 -0.023692 -0.023163 -0.022655 -0.022189 -0.021763 -0.021377 -0.021038 -0.020730 -0.020457 -0.020216 -0.019994 -0.019796 -0.019619 -0.019451 -0.019279 -0.019091 -0.018874 -0.018642 -0.018380 -0.018103 -0.017803 -0.017484 -0.017142 -0.016781 -0.016403 -0.016008 -0.015599 -0.015172 -0.014731 -0.014276 -0.013808 -0.013329 -0.012838 -0.012336 -0.011824 -0.011301 -0.010767 -0.010223 -0.009667 -0.009099 -0.006056 -0.005399 -0.004726 -0.004036 -0.003328 -0.002606 -0.001871 -0.001127 -0.000377 0.000375 0.001126 0.001870 0.002605 0.003327 0.004034 0.004725 0.005398 0.006055 0.006694 0.007317 0.007925 0.008518 0.009098 0.009666 0.010222 0.010766 0.011300 0.011823 0.012335 0.012837 0.013328 0.013808 0.014275 0.014730 0.015172 0.015599 0.016007 0.016402 0.016781 0.017142 0.017484 0.017803 0.018102 0.018379 0.018641 0.018874 0.019090 0.019279 0.019450 0.019619 0.019796 0.019994 0.020216 0.020457 0.020729 0.021038 0.021377 0.021763 0.022189 0.022655 0.023163 0.023692 0.024242 0.024789 0.025302 0.025764 0.026127 0.026363 0.026434 0.026309 0.025962 0.025381 0.024563 0.023519 0.022270 0.020851 0.019299 0.017657 0.015971 0.014282 0.012628 0.011045 0.009556 0.008185 0.006943 0.005836 0.004866 0.004028 0.003314 0.002713 0.002213 0.001800 0.001463 0.001188 0.000966 0.000787 0.000643 0.000527 0.000433 0.000357 0.000295 0.000244 0.000202 0.000166 0.000135 0.000108 0.000085 0.000063 -0.000063 -0.000085 -0.000108 -0.000135 -0.000166 -0.000202 -0.000244 -0.000295 -0.000357 -0.000433 -0.000527 -0.000643 -0.000787 -0.000967 -0.001189 -0.001463 -0.001800 -0.002213 -0.002713 -0.003315 -0.004028 -0.004866 -0.005836 -0.006943 -0.008185 -0.009556 -0.011045 -0.012628 -0.014282 -0.015971 -0.017657 -0.019299 -0.020851 -0.022270 -0.023519 -0.024563 -0.025381 -0.025962 -0.026309 -0.026434 -0.026363 -0.026127 -0.025764 -0.025302 -0.024789 -0.024243 -0.023692 -0.023163 -0.022655 -0.022189 -0.021763 -0.021377 -0.021038 -0.020730 -0.020457 -0.020216 -0.019994 -0.019796 -0.019619 -0.019451 -0.019279 -0.019091 -0.018874 -0.018642 -0.018380 -0.018103 -0.017803 -0.017484 -0.017142 -0.016781 -0.016403 -0.016008 -0.015599 -0.015172 -0.014731 -0.014276 -0.013808 -0.013329 -0.012838 -0.012336 -0.011824 -0.011301 -0.010767 -0.010223 -0.009667 -0.009099 -0.006056 -0.005399 -0.004726 -0.004036 -0.003328 -0.002606 -0.001871 -0.001127 -0.000377 0.000375 0.001126 0.001870 0.002605 0.003327 0.004034 0.004725 0.005398 0.006055 0.006694 0.007317 0.007925 0.008518 0.009098 0.009666 0.010222 0.010766 0.011300 0.011823 0.012335 0.012837 0.013328 0.013808 0.014275 0.014730 0.015172 0.015599 0.016007 0.016402 0.016781 0.017142 0.017484 0.017803 0.018102 0.018379 0.018641 0.018874 0.019090 0.019279 0.019450 0.019619 0.019796 0.019994 0.020216 0.020457 0.020729 0.021038 0.021377 0.021763 0.022189 0.022655 0.023163 0.023692 0.024242 0.024789 0.025302 0.025764 0.026127 0.026363 0.026434 0.026309 0.025962 0.025381 0.024563 0.023519 0.022270 0.020851 0.019299 0.017657 0.015971 0.014282 0.012628 0.011045 0.009556 0.008185 0.006943 0.005836 0.004866 0.004028 0.003314 0.002713 0.002213 0.001800 0.001463 0.001188 0.000966 0.000787 0.000643 0.000527 0.000433 0.000357 0.000295 0.000244 0.000202 0.000166 0.000135 0.000108 0.000085 0.000063 
0.000000 0.000000 0.000000 0.000000 0.000000 0.000000 0.000000 0.000000 0.000000 0.000000 0.000000 0.000000 0.000000 0.000000 0.000000 0.000000 0.000000 0.000000 0.000000 0.000000 0.000000 0.000000 0.000000 0.000000 0.000000 0.000000 0.000000 0.000000 0.000000 0.000000 0.000000 0.000000 0.000000 0.000000 0.000000 0.000000 0.000000 0.000000 0.000000 0.000000 0.000000 0.000000 0.000000 0.000000 0.000000 0.000000 0.000000 0.000000 0.000000 0.000000 0.000000 0.000000 0.000000 0.000000 0.000000 0.000000 0.000000 0.000000 0.000000 0.000000 0.000000 0.000000 0.000000 0.000000 0.000000 0.000000 0.000000 0.000000 0.000000 0.000000 0.000000 0.000000 0.000000 0.000000 0.000000 0.000000 0.000000 0.000000 0.000000 0.000000 0.000000 0.000000 0.000000 0.000000 0.000000 0.000000 0.000000 0.000000 0.000000 0.000000 0.000000 0.000000 0.000000 0.000000 0.000000 0.000000 0.000000 0.000000 0.000000 0.000000 0.000000 0.000000 0.000000 0.000000 0.000000 0.000000 0.000000 0.000000 0.000000 0.000000 0.000000 0.000000 0.000000 0.000000 0.000000 0.000000 0.000000 0.000000 0.000000 0.000000 0.000000 0.000000 0.000000 0.000000 0.000000 0.000000 0.000000 0.000000 0.000000 0.000000 0.000000 0.000000 0.000000 0.000000 0.000000 0.000000 0.000000 0.000000 0.000000 0.000000 0.000000 0.000000 0.000000 0.000000 0.000000 0.000000 0.000000 0.000000 0.000000 0.000000 0.000000 0.000000 0.000000 0.000000 0.000000 0.000000 0.000000 0.000000 0.000000 0.000000 0.000000 0.000000 0.000000 0.000000 0.000000 0.000000 0.000000 0.000000 0.000000 0.000000 0.000000 0.000000 0.000000 0.000000 0.000000 0.000000 0.000000 0.000000 0.000000 0.000000 0.000000 0.000000 0.000000 0.000000 0.000000 0.000000 0.000000 0.000000 0.000000 0.000000 0.000000 0.000000 0.000000 0.000000 0.001000 0.001000 0.001000 0.001000 0.001000 0.001000 0.001000 0.001000 0.001000 0.001000 0.001000 0.001000 0.001000 0.001000 0.001000 0.001000 0.001000 0.001000 0.001000 0.001000 0.001000 0.001000 0.001000 0.001000 0.001000 0.001000 0.001000 0.001000 0.001000 0.001000 0.001000 0.001000 0.001000 0.001000 0.001000 0.001000 0.001000 0.001000 0.001000 0.001000 0.001000 0.001000 0.001000 0.001000 0.001000 0.001000 0.001000 0.001000 0.001000 0.001000 0.001000 0.001000 0.001000 0.001000 0.001000 0.001000 0.001000 0.001000 0.001000 0.001000 0.001000 0.001000 0.001000 0.001000 0.001000 0.001000 0.001000 0.001000 0.001000 0.001000 0.001000 0.001000 0.001000 0.001000 0.001000 0.001000 0.001000 0.001000 0.001000 0.001000 0.001000 0.001000 0.001000 0.001000 0.001000 0.001000 0.001000 0.001000 0.001000 0.001000 0.001000 0.001000 0.001000 0.001000 0.001000 0.001000 0.001000 0.001000 0.001000 0.001000 0.001000 0.001000 0.001000 0.001000 0.001000 0.001000 0.001000 0.001000 0.001000 0.001000 0.001000 0.001000 0.001000 0.001000 0.001000 0.001000 0.001000 0.001000 0.001000 0.001000 0.001000 0.001000 0.001000 0.001000 0.001000 0.001000 0.001000 0.001000 0.001000 0.001000 0.001000 0.001000 0.001000 0.001000 0.001000 0.001000 0.001000 0.001000 0.001000 0.001000 0.001000 0.001000 0.001000 0.001000 0.001000 0.001000 0.001000 0.001000 0.001000 0.001000 0.001000 0.001000 0.001000 0.001000 0.001000 0.001000 0.001000 0.001000 0.001000 0.001000 0.001000 0.001000 0.001000 0.001000 0.001000 0.001000 0.001000 0.001000 0.001000 0.001000 0.001000 0.001000 0.001000 0.001000 0.001000 0.001000 0.001000 0.001000 0.001000 0.001000 0.001000 0.001000 0.001000 0.001000 0.001000 0.001000 0.001000 0.001000 0.001000 0.001000 0.001000 0.001000 0.001000 0.001000 
0.000000 0.000000 0.000000 0.000000 0.000000 0.000000 0.000000 0.000000 0.000000 0.000000 0.000000 0.000000 0.000000 0.000000 0.000000 0.000000 0.000000 0.000000 0.000000 0.000000 0.000000 0.000000 0.000000 0.000000 0.000000 0.000000 0.000000 0.000000 0.000000 0.000000 0.000000 0.000000 0.000000 0.000000 0.000000 0.000000 0.000000 0.000000 0.000000 0.000000 0.000000 0.000000 0.000000 0.000000 0.000000 0.000000 0.000000 0.000000 0.000000 0.000000 0.000000 0.000000 0.000000 0.000000 0.000000 0.000000 0.000000 0.000000 0.000000 0.000000 0.000000 0.000000 0.000000 0.000000 0.000000 0.000000 0.000000 0.000000 0.000000 0.000000 0.000000 0.000000 0.000000 0.000000 0.000000 0.000000 0.000000 0.000000 0.000000 0.000000 0.000000 0.000000 0.000000 0.000000 0.000000 0.000000 0.000000 0.000000 0.000000 0.000000 0.000000 0.000000 0.000000 0.000000 0.000000 0.000000 0.000000 0.000000 0.000000 0.000000 0.000000 0.000000 0.000000 0.000000 0.000000 0.000000 0.000000 0.000000 0.000000 0.000000 0.000000 0.000000 0.000000 0.000000 0.000000 0.000000 0.000000 0.000000 0.000000 0.000000 0.000000 0.000000 0.000000 0.000000 0.000000 0.000000 0.000000 0.000000 0.000000 0.000000 0.000000 0.000000 0.000000 0.000000 0.000000 0.000000 0.000000 0.000000 0.000000 0.000000 0.000000 0.000000 0.000000 0.000000 0.000000 0.000000 0.000000 0.000000 0.000000 0.000000 0.000000 0.000000 0.000000 0.000000 0.000000 0.000000 0.000000 0.000000 0.000000 0.000000 0.000000 0.000000 0.000000 0.000000 0.000000 0.000000 0.000000 0.000000 0.000000 0.000000 0.000000 0.000000 0.000000 0.000000 0.000000 0.000000 0.000000 0.000000 0.000000 0.000000 0.000000 0.000000 0.000000 0.000000 0.000000 0.000000 0.000000 0.000000 0.000000 0.000000 0.000000 0.000000 0.000000 0.000000 0.000000 0.000000 0.000000 0.000000 0.000000 0.000000 0.000000 0.000000 0.000000 0.000000 0.000000 0.000000 0.000000 0.000000 0.000000 0.000000 0.000000 0.000000 0.000000 0.000000 0.000000 0.000000 0.000000 0.000000 0.000000 0.000000 0.000000 0.000000 0.000000 0.000000 0.000000 0.000000 0.000000 0.000000 0.000000 0.000000 0.000000 0.000000 0.000000 0.000000 0.000000 0.000000 0.000000 0.000000 0.000000 0.000000 0.000000 0.000000 0.000000 0.000000 0.000000 0.000000 0.000000 0.000000 0.000000 0.000000 0.000000 0.000000 0.000000 0.000000 0.000000 0.000000 0.000000 0.000000 0.000000 0.000000 0.000000 0.000000 0.000000 0.000000 0.000000 0.000000 0.000000 0.000000 0.000000 0.000000 0.000000 0.000000 0.000000 0.000000 0.000000 0.000000 0.000000 0.000000 0.000000 0.000000 0.000000 0.000000 0.000000 0.000000 0.000000 0.000000 0.000000 0.000000 0.000000 0.000000 0.000000 0.000000 0.000000 0.000000 0.000000 0.000000 0.000000 0.000000 0.000000 0.000000 0.000000 0.000000 0.000000 0.000000 0.000000 0.000000 0.000000 0.000000 0.000000 0.000000 0.000000 0.000000 0.000000 0.000000 0.000000 0.000000 0.000000 0.000000 0.000000 0.000000 0.000000 0.000000 0.000000 0.000000 0.000000 0.000000 0.000000 0.000000 0.000000 0.000000 0.000000 0.000000 0.000000 0.000000 0.000000 0.000000 0.000000 0.000000 0.000000 0.000000 0.000000 0.000000 0.000000 0.000000 0.000000 0.000000 0.000000 0.000000 0.000000 0.000000 0.000000 0.000000 0.000000 0.000000 0.000000 0.000000 0.000000 0.000000 0.000000 0.000000 0.000000 0.000000 0.000000 0.000000 0.000000 0.000000 0.000000 0.000000 0.000000 0.000000 0.000000 0.000000 0.000000 0.000000 0.000000 0.000000 0.000000 0.000000 0.000000 0.000000 0.000000 0.000000 0.000000 0.000000 
0.000000 0.000000 0.000000 0.000000 0.000000 0.000000 0.000000 0.000000 0.000000 0.000000 0.000000 0.000000 0.000000 0.000000 0.000000 0.000000 0.000000 0.000000 0.000000 0.000000 0.000000 0.000000 0.000000 0.000000 0.000000 0.000000 0.000000 0.000000 0.000000 0.000000 0.000000 0.000000 0.000000 0.000000 0.000000 0.000000 0.000000 0.000000 0.000000 0.000000 0.000000 0.000000 0.000000 0.000000 0.000000 0.000000 0.000000 0.000000 0.000000 0.000000 0.000000 0.000000 0.000000 0.000000 0.000000 0.000000 0.000000 0.000000 0.000000 0.000000 0.000000 0.000000 0.000000 0.000000 0.000000 0.000000 0.000000 0.000000 0.000000 0.000000 0.000000 0.000000 0.000000 0.000000 0.000000 0.000000 0.000000 0.000000 0.000000 0.000000 0.000000 0.000000 0.000000 0.000000 0.000000 0.000000 0.000000 0.000000 0.000000 0.000000 0.000000 0.000000 0.000000 0.000000 0.000000 0.000000 0.000000 0.000000 0.000000 0.000000 0.000000 0.000000 0.000000 0.000000 0.000000 0.000000 0.000000 0.000000 0.000000 0.000000 0.000000 0.000000 0.000000 0.000000 0.000000 0.000000 0.000000 0.000000 0.000000 0.000000 0.000000 0.000000 0.000000 0.000000 0.000000 0.000000 0.000000 0.000000 0.000000 0.000000 0.000000 0.000000 0.000000 0.000000 0.000000 0.000000 0.000000 0.000000 0.000000 0.000000 0.000000 0.000000 0.000000 0.000000 0.000000 0.000000 0.000000 0.000000 0.000000 0.000000 0.000000 0.000000 0.000000 0.000000 0.000000 0.000000 0.000000 0.000000 0.000000 0.000000 0.000000 0.000000 0.000000 0.000000 0.000000 0.000000 0.000000 0.000000 0.000000 0.000000 0.000000 0.000000 0.000000 0.000000 0.000000 0.000000 0.000000 0.000000 0.000000 0.000000 0.000000 0.000000 0.000000 0.000000 0.000000 0.000000 0.000000 0.000000 0.000000 0.000000 0.000000 0.000000 0.000000 0.000000 0.000000 0.000000 0.000000 0.000000 0.000000 0.000000 0.000000 0.000000 0.000000 0.000000 0.000000 0.000000 0.000000 0.000000 0.000000 0.000000 0.000000 0.000000 0.000000 0.000000 0.000000 0.000000 0.000000 0.000000 0.000000 0.000000 0.000000 0.000000 0.000000 0.000000 0.000000 0.000000 0.000000 0.000000 0.000000 0.000000 0.000000 0.000000 0.000000 0.000000 0.000000 0.000000 0.000000 0.000000 0.000000 0.000000 0.000000 0.000000 0.000000 0.000000 0.000000 0.000000 0.000000 0.000000 0.000000 0.000000 0.000000 0.000000 0.000000 0.000000 0.000000 0.000000 0.000000 0.000000 0.000000 0.000000 0.000000 0.000000 0.000000 0.000000 0.000000 0.000000 0.000000 0.000000 0.000000 0.000000 0.000000 0.000000 0.000000 0.000000 0.000000 0.000000 0.000000 0.000000 0.000000 0.000000 0.000000 0.000000 0.000000 0.000000 0.000000 0.000000 0.000000 0.000000 0.000000 0.000000 0.000000 0.000000 0.000000 0.000000 0.000000 0.000000 0.000000 0.000000 0.000000 0.000000 0.000000 0.000000 0.000000 0.000000 0.000000 0.000000 0.000000 0.000000 0.000000 0.000000 0.000000 0.000000 0.000000 0.000000 0.000000 0.000000 0.000000 0.000000 0.000000 0.000000 0.000000 0.000000 0.000000 0.000000 0.000000 0.000000 0.000000 0.000000 0.000000 0.000000 0.000000 0.000000 0.000000 0.000000 0.000000 0.000000 0.000000 0.000000 0.000000 0.000000 0.000000 0.000000 0.000000 0.000000 0.000000 0.000000 0.000000 0.000000 0.000000 0.000000 0.000000 0.000000 0.000000 0.000000 0.000000 0.000000 0.000000 0.000000 0.000000 0.000000 0.000000 0.000000 0.000000 0.000000 0.000000 0.000000 0.000000 0.000000 0.000000 0.000000 0.000000 0.000000 0.000000 0.000000 0.000000 0.000000 0.000000 0.000000 0.000000 0.000000 0.000000 0.000000 0.000000 0.000000 
0.000000 0.000000 0.000000 0.000000 0.000000 0.000000 0.000000 0.000000 0.000000 0.000000 0.000000 0.000000 0.000000 0.000000 0.000000 0.000000 0.000000 0.000000 0.000000 0.000000 0.000000 0.000000 0.000000 0.000000 0.000000 0.000000 0.000000 0.000000 0.000000 0.000000 0.000000 0.000000 0.000000 0.000000 0.000000 0.000000 0.000000 0.000000 0.000000 0.000000 0.000000 0.000000 0.000000 0.000000 0.000000 0.000000 0.000000 0.000000 0.000000 0.000000 0.000000 0.000000 0.000000 0.000000 0.000000 0.000000 0.000000 0.000000 0.000000 0.000000 0.000000 0.000000 0.000000 0.000000 0.000000 0.000000 0.000000 0.000000 0.000000 0.000000 0.000000 0.000000 0.000000 0.000000 0.000000 0.000000 0.000000 0.000000 0.000000 0.000000 0.000000 0.000000 0.000000 0.000000 0.000000 0.000000 0.000000 0.000000 0.000000 0.000000 0.000000 0.000000 0.000000 0.000000 0.000000 0.000000 0.000000 0.000000 0.000000 0.000000 0.000000 0.000000 0.000000 0.000000 0.000000 0.000000 0.000000 0.000000 0.000000 0.000000 0.000000 0.000000 0.000000 0.000000 0.000000 0.000000 0.000000 0.000000 0.000000 0.000000 0.000000 0.000000 0.000000 0.000000 0.000000 0.000000 0.000000 0.000000 0.000000 0.000000 0.000000 0.000000 0.000000 0.000000 0.000000 0.000000 0.000000 0.000000 0.000000 0.000000 0.000000 0.000000 0.000000 0.000000 0.000000 0.000000 0.000000 0.000000 0.000000 0.000000 0.000000 0.000000 0.000000 0.000000 0.000000 0.000000 0.000000 0.000000 0.000000 0.000000 0.000000 0.000000 0.000000 0.000000 0.000000 0.000000 0.000000 0.000000 0.000000 0.000000 0.000000 0.000000 0.000000 0.000000 0.000000 0.000000 0.000000 0.000000 0.000000 0.000000 0.000000 0.000000 0.000000 0.000000 0.000000 0.000000 0.000000 0.000000 0.000000 0.000000 0.000000 0.000000 0.000000 0.000000 0.000000 0.000000 0.000000 0.000000 0.000000 0.000000 0.000000 0.000000 0.000000 0.000000 0.000000 0.000000 0.000000 0.000000 0.000000 0.000000 0.000000 0.000000 0.000000 0.000000 0.000000 0.000000 0.000000 0.000000 0.000000 0.000000 0.000000 0.000000 0.000000 0.000000 0.000000 0.000000 0.000000 0.000000 0.000000 0.000000 0.000000 0.000000 0.000000 0.000000 0.000000 0.000000 0.000000 0.000000 0.000000 0.000000 0.000000 0.000000 0.000000 0.000000 0.000000 0.000000 0.000000 0.000000 0.000000 0.000000 0.000000 0.000000 0.000000 0.000000 0.000000 0.000000 0.000000 0.000000 0.000000 0.000000 0.000000 0.000000 0.000000 0.000000 0.000000 0.000000 0.000000 0.000000 0.000000 0.000000 0.000000 0.000000 0.000000 0.000000 0.000000 0.000000 0.000000 0.000000 0.000000 0.000000 0.000000 0.000000 0.000000 0.000000 0.000000 0.000000 0.000000 0.000000 0.000000 0.000000 0.000000 0.000000 0.000000 0.000000 0.000000 0.000000 0.000000 0.000000 0.000000 0.000000 0.000000 0.000000 0.000000 0.000000 0.000000 0.000000 0.000000 0.000000 0.000000 0.000000 0.000000 0.000000 0.000000 0.000000 0.000000 0.000000 0.000000 0.000000 0.000000 0.000000 0.000000 0.000000 0.000000 0.000000 0.000000 0.000000 0.000000 0.000000 0.000000 0.000000 0.000000 0.000000 0.000000 0.000000 0.000000 0.000000 0.000000 0.000000 0.000000 0.000000 0.000000 0.000000 0.000000 0.000000 0.000000 0.000000 0.000000 0.000000 0.000000 0.000000 0.000000 0.000000 0.000000 0.000000 0.000000 0.000000 0.000000 0.000000 0.000000 0.000000 0.000000 0.000000 0.000000 0.000000 0.000000 0.000000 0.000000 0.000000 0.000000 0.000000 0.000000 0.000000 0.000000 0.000000 0.000000 0.000000 0.000000 0.000000 0.000000 0.000000 0.000000 0.000000 0.000000 0.000000 
216.955333 216.768667 216.515333 216.448667 216.385000 216.388000 216.443667 216.496333 216.656000 216.763000 217.013333 217.156667 217.494667 217.689333 218.137667 218.391333 218.953333 219.261667 219.956667 220.343333 221.188333 221.646667 222.644333 223.183667 224.375000 225.027000 226.432667 227.186333 228.797667 229.655333 231.508000 232.503000 234.612667 235.727333 238.087333 239.332667 241.955667 243.333333 246.200000 247.689000 250.783333 252.388667 255.672000 257.350000 260.789667 262.551333 266.130667 267.948333 271.628000 273.490000 277.273667 279.195333 283.071000 285.025000 289.043333 291.107667 295.335667 297.499333 301.928333 304.193667 308.956000 311.453000 316.613333 319.276667 324.762333 327.584667 333.503667 336.600333 342.988000 346.279000 352.920333 356.270667 363.068000 366.515000 373.512000 377.062000 384.046000 387.480000 394.023333 397.132667 403.354667 406.467333 412.333333 415.086667 420.166667 422.493333 427.669000 430.518000 435.202667 437.038333 440.405000 441.936000 445.693333 447.919667 451.172333 452.198667 454.818000 456.411000 458.961333 459.918667 461.248667 461.621333 463.954667 465.915333 467.992000 468.108000 468.812000 469.400000 471.583333 473.178667 473.322333 471.870667 470.469667 470.520333 472.862000 475.153000 476.612333 475.780667 475.191333 475.433667 476.936333 478.196667 479.634333 479.811667 480.476667 480.964333 480.420000 479.388000 478.398667 478.441333 479.786667 481.089333 482.810000 483.228000 483.262000 482.878000 481.988667 481.483333 480.347333 479.716667 478.771667 478.457333 478.464333 478.785667 478.015333 476.923667 474.201667 472.571333 469.297667 467.654333 463.597333 461.183667 455.764000 452.758000 445.906000 442.060000 433.466667 428.719333 418.270333 412.568667 400.156667 393.446333 379.111667 371.487333 355.700667 347.538333 331.097000 322.818000 306.317000 298.095000 233.585000 240.781000 263.741000 279.505000 319.476667 343.684333 398.408333 428.924667 493.675667 527.910333 598.604000 635.063000 708.660000 745.798000 816.902333 850.868667 915.257333 945.679667 1003.698000 1031.294000 1080.453333 1102.016667 1138.230000 1152.880000 1174.876667 1182.223333 1189.830000 1190.090000 1186.430000 1182.510000 1172.816667 1167.043333 1154.240000 1147.210000 1130.653333 1121.126667 1102.046667 1092.493333 1074.356667 1065.773333 1047.666667 1038.143333 1019.680000 1010.740000 993.443000 985.086000 968.389333 960.049667 944.026000 936.342000 921.369667 914.081333 899.803000 892.813000 879.195667 872.568333 859.737333 853.533667 841.481000 835.632000 824.207333 818.631667 807.898333 802.740667 792.424000 787.265000 777.809333 773.512667 764.803333 760.390667 750.301000 744.624000 734.808667 730.670333 723.471333 720.410667 714.705667 712.061333 706.921333 704.425667 698.544000 695.158000 687.571333 683.370667 676.884333 674.598667 671.668667 671.024333 668.137000 665.894000 661.881667 660.112333 655.405000 652.467000 647.980667 646.432333 644.624667 644.365333 640.145333 636.184667 630.908333 629.592667 628.594667 628.912333 625.913667 622.597333 616.969000 614.657000 610.336333 608.327667 602.087333 597.855667 590.998000 588.372000 582.316667 578.887333 571.212667 566.967333 558.926667 555.131333 546.133333 540.930667 531.123333 526.518667 516.857667 511.801333 500.600000 494.455000 482.669000 477.028000 465.313667 459.240333 446.755333 440.343667 427.506000 421.080000 407.950667 401.247333 387.832333 381.120667 367.891333 361.373667 348.529333 342.202667 329.686667 323.497333 311.317000 305.326000 293.553333 287.771667 276.289667 270.589333 259.234333 253.579667 242.329000 236.733000 225.504000 219.871000 208.589333 202.940667 191.697000 186.102000 175.017333 169.527667 158.790333 153.542667 143.425667 138.556333 129.333667 124.980333 116.912333 113.197667 106.540667 103.598333 98.608400 96.560800 93.207833 91.902467 89.720133 88.843167 87.322567 86.678933 85.559567 85.083833 84.278467 83.948833 83.413933 83.208667 82.913100 82.822800 82.753533 82.774567 82.922000 83.048400 83.406733 83.638667 84.207467 84.544333 85.317433 85.753667 86.726133 87.262367 88.435133 89.071667 90.455933 91.203667 92.836300 93.721200 95.671900 96.737700 99.133000 100.462500 103.690667 105.589333 
0.000000 0.000000 0.000000 0.000000 0.000000 0.000000 0.000000 0.000000 0.000000 0.000000 0.000000 0.000000 0.000000 0.000000 0.000000 0.000000 0.000000 0.000000 0.000000 0.000000 0.000000 0.000000 0.000000 0.000000 0.000000 0.000000 0.000000 0.000000 0.000000 0.000000 0.000000 0.000000 0.000000 0.000000 0.000000 0.000000 0.000000 0.000000 0.000000 0.000000 0.000000 0.000000 0.000000 0.000000 0.000000 0.000000 0.000000 0.000000 0.000000 0.000000 0.000000 0.000000 0.000000 0.000000 0.000000 0.000000 0.000000 0.000000 0.000000 0.000000 0.000000 0.000000 0.000000 0.000000 0.000000 0.000000 0.000000 0.000000 0.000000 0.000000 0.000000 0.000000 0.000000 0.000000 0.000000 0.000000 0.000000 0.000000 0.000000 0.000000 0.000000 0.000000 0.000000 0.000000 0.000000 0.000000 0.000000 0.000000 0.003878 0.007757 0.017144 0.022654 0.033841 0.039519 0.050638 0.056080 0.066259 0.070998 0.080511 0.085285 0.093722 0.097385 0.104798 0.108548 0.115996 0.119694 0.125803 0.128214 0.133824 0.137022 0.142878 0.145535 0.148983 0.149773 0.152670 0.154776 0.159563 0.162243 0.165951 0.166979 0.170446 0.172885 0.177803 0.180281 0.185544 0.188330 0.194135 0.197156 0.202339 0.204501 0.209976 0.213288 0.220489 0.224378 0.232416 0.236565 0.244643 0.248572 0.256639 0.260776 0.269093 0.273271 0.282349 0.287249 0.297599 0.303050 0.313828 0.319156 0.330072 0.335661 0.347060 0.352869 0.364726 0.370773 0.383116 0.389411 0.402223 0.408738 0.422014 0.428774 0.442527 0.449520 0.463727 0.470942 0.485549 0.492943 0.507925 0.515514 0.530858 0.538614 0.668229 0.674942 0.687509 0.693363 0.703888 0.708558 0.716258 0.719287 0.723369 0.724421 0.724275 0.723077 0.718116 0.714354 0.704185 0.697779 0.682394 0.673414 0.652794 0.641154 0.615498 0.601484 0.571581 0.555694 0.522302 0.504798 0.468863 0.450431 0.413291 0.394582 0.357333 0.338792 0.301921 0.283589 0.247361 0.229464 0.194691 0.177814 0.144568 0.128198 0.096409 0.080990 0.051095 0.036620 0.014763 0.007382 0.000000 0.000000 0.000000 0.000000 0.000000 0.000000 0.000000 0.000000 0.000000 0.000000 0.000000 0.000000 0.000000 0.000000 0.000000 0.000000 0.000000 0.000000 0.000000 0.000000 0.000000 0.000000 0.000000 0.000000 0.000000 0.000000 0.000000 0.000000 0.000000 0.000000 0.000000 0.000000 0.000000 0.000000 0.000000 0.000000 0.000000 0.000000 0.000000 0.000000 0.000000 0.000000 0.000000 0.000000 0.000000 0.000000 0.000000 0.000000 0.000000 0.000000 0.000000 0.000000 0.000000 0.000000 0.000000 0.000000 0.000000 0.000000 0.000000 0.000000 0.000000 0.000000 0.000000 0.000000 0.000000 0.000000 0.000000 0.000000 0.000000 0.000000 0.000000 0.000000 0.000000 0.000000 0.000000 0.000000 0.000000 0.000000 0.000000 0.000000 0.000000 0.000000 0.000000 0.000000 0.000000 0.000000 0.000000 0.000000 0.000000 0.000000 0.000000 0.000000 0.000000 0.000000 0.000000 0.000000 0.000000 0.000000 0.000000 0.000000 0.000000 0.000000 0.000000 0.000000 0.000000 0.000000 0.000000 0.000000 0.000000 0.000000 0.000000 0.000000 0.000000 0.000000 0.000000 0.000000 0.000000 0.000000 0.000000 0.000000 0.000000 0.000000 0.000000 0.000000 0.000000 0.000000 0.000000 0.000000 0.000000 0.000000 0.000000 0.000000 0.000000 0.000000 0.000000 0.000000 0.000000 0.000000 0.000000 0.000000 0.000000 0.000000 0.000000 0.000000 0.000000 0.000000 0.000000 0.000000 0.000000 0.000000 0.000000 0.000000 0.000000 0.000000 0.000000 0.000000 0.000000 0.000000 0.000000 0.000000 0.000000 0.000000 0.000000 0.000000 0.000000 0.000000 0.000000 0.000000 