#
TITLE=""
VARIABLES="X", "Y", "Z", "T", "Hw", "Hi", "HTC", "Beta", "TauX", "TauY", "TauZ", "Id"
ZONE T="ZONE 1"
NODES=4
ELEMENTS=2
DATAPACKING=BLOCK
ZONETYPE=FETRIANGLE
VARLOCATION=([4-12]=CELLCENTERED)
5.555697083473205566e-01 4.691263437271118164e-01 5.502322912216186523e-01 4.637889266014099121e-01 
-8.314693570137023926e-01 -8.776742219924926758e-01 -8.234812021255493164e-01 -8.696860671043395996e-01 
0.000000000000000000e+00 0.000000000000000000e+00 -9.754516184329986572e-02 -9.754516184329986572e-02 
0.000000000000000000e+00 0.000000000000000000e+00 
0.000000000000000000e+00 0.000000000000000000e+00 
8.243877411527936738e-01 8.243877411527936738e-01 
0.000000000000000000e+00 0.000000000000000000e+00 
0.000000000000000000e+00 0.000000000000000000e+00 
0.000000000000000000e+00 0.000000000000000000e+00 
0.000000000000000000e+00 0.000000000000000000e+00 
0.000000000000000000e+00 0.000000000000000000e+00 
2.650000000000000000e+03 2.651000000000000000e+03 
4 3 2
3 1 2
ZONE T="unite"
NODES=3
ELEMENTS=1
DATAPACKING=BLOCK
ZONETYPE=FETRIANGLE
VARLOCATION=([4-12]=CELLCENTERED)
5.308731794357299805e-01 5.345498025417327881e-01 4.444298744201660156e-01 
-8.776737451553344727e-01 -8.687978982925415039e-01 -8.314687609672546387e-01 
0.000000000000000000e+00 -9.754516184329986572e-02 0.000000000000000000e+00 
0.000000000000000000e+00 
0.000000000000000000e+00 
8.243877411527936738e-01 
0.000000000000000000e+00 
0.000000000000000000e+00 
0.000000000000000000e+00 
0.000000000000000000e+00 
0.000000000000000000e+00 
6.015000000000000000e+03 
2 1 3
