#
TITLE=""
VARIABLES="X", "Y", "Z", "M", "Id"
ZONE T="SINGLE"
NODES=2160
ELEMENTS=720
DATAPACKING=BLOCK
ZONETYPE=FETRIANGLE
VARLOCATION=([4-5]=CELLCENTERED)
2.733999999999999885e-03 3.222000000000000038e-03 3.206000000000000082e-03 2.733999999999999885e-03 3.206000000000000082e-03 2.716999999999999797e-03 3.222000000000000038e-03 3.713999999999999854e-03 3.699000000000000031e-03 3.222000000000000038e-03 3.699000000000000031e-03 3.206000000000000082e-03 3.713999999999999854e-03 4.210000000000000200e-03 4.196000000000000077e-03 3.713999999999999854e-03 4.196000000000000077e-03 3.699000000000000031e-03 4.210000000000000200e-03 4.709999999999999777e-03 4.697999999999999919e-03 4.210000000000000200e-03 4.697999999999999919e-03 4.196000000000000077e-03 4.709999999999999777e-03 5.213999999999999885e-03 5.202000000000000027e-03 4.709999999999999777e-03 5.202000000000000027e-03 4.697999999999999919e-03 5.213999999999999885e-03 5.721000000000000391e-03 5.709999999999999798e-03 5.213999999999999885e-03 5.709999999999999798e-03 5.202000000000000027e-03 5.721000000000000391e-03 6.230000000000000294e-03 6.219999999999999835e-03 5.721000000000000391e-03 6.219999999999999835e-03 5.709999999999999798e-03 6.230000000000000294e-03 6.740999999999999596e-03 6.732000000000000137e-03 6.230000000000000294e-03 6.732000000000000137e-03 6.219999999999999835e-03 6.740999999999999596e-03 7.254000000000000031e-03 7.245999999999999837e-03 6.740999999999999596e-03 7.245999999999999837e-03 6.732000000000000137e-03 7.254000000000000031e-03 7.767999999999999731e-03 7.760000000000000404e-03 7.254000000000000031e-03 7.760000000000000404e-03 7.245999999999999837e-03 7.767999999999999731e-03 8.281000000000000166e-03 8.274000000000000105e-03 7.767999999999999731e-03 8.274000000000000105e-03 7.760000000000000404e-03 8.281000000000000166e-03 8.793999999999999734e-03 8.788000000000000672e-03 8.281000000000000166e-03 8.788000000000000672e-03 8.274000000000000105e-03 8.793999999999999734e-03 9.306000000000000036e-03 9.299999999999999239e-03 8.793999999999999734e-03 9.299999999999999239e-03 8.788000000000000672e-03 9.306000000000000036e-03 9.816999999999999338e-03 9.811999999999999542e-03 9.306000000000000036e-03 9.811999999999999542e-03 9.299999999999999239e-03 9.816999999999999338e-03 1.032500000000000084e-02 1.031999999999999931e-02 9.816999999999999338e-03 1.031999999999999931e-02 9.811999999999999542e-03 1.032500000000000084e-02 1.082999999999999935e-02 1.082600000000000055e-02 1.032500000000000084e-02 1.082600000000000055e-02 1.031999999999999931e-02 1.082999999999999935e-02 1.133100000000000079e-02 1.132700000000000026e-02 1.082999999999999935e-02 1.132700000000000026e-02 1.082600000000000055e-02 1.133100000000000079e-02 1.182700000000000071e-02 1.182399999999999944e-02 1.133100000000000079e-02 1.182399999999999944e-02 1.132700000000000026e-02 1.182700000000000071e-02 1.231699999999999982e-02 1.231499999999999956e-02 1.182700000000000071e-02 1.231499999999999956e-02 1.182399999999999944e-02 1.231699999999999982e-02 1.280099999999999988e-02 1.279899999999999961e-02 1.231699999999999982e-02 1.279899999999999961e-02 1.231499999999999956e-02 1.280099999999999988e-02 1.326699999999999928e-02 1.326500000000000075e-02 1.280099999999999988e-02 1.326500000000000075e-02 1.279899999999999961e-02 1.326699999999999928e-02 1.372400000000000009e-02 1.372199999999999982e-02 1.326699999999999928e-02 1.372199999999999982e-02 1.326500000000000075e-02 1.372400000000000009e-02 1.417200000000000057e-02 1.417000000000000030e-02 1.372400000000000009e-02 1.417000000000000030e-02 1.372199999999999982e-02 1.417200000000000057e-02 1.459500000000000033e-02 1.459399999999999933e-02 1.417200000000000057e-02 1.459399999999999933e-02 1.417000000000000030e-02 1.459500000000000033e-02 1.499299999999999938e-02 1.499200000000000012e-02 1.459500000000000033e-02 1.499200000000000012e-02 1.459399999999999933e-02 1.499299999999999938e-02 1.536999999999999998e-02 1.536900000000000072e-02 1.499299999999999938e-02 1.536900000000000072e-02 1.499200000000000012e-02 1.536999999999999998e-02 1.573400000000000146e-02 1.573300000000000046e-02 1.536999999999999998e-02 1.573300000000000046e-02 1.536900000000000072e-02 1.573400000000000146e-02 1.608700000000000060e-02 1.608700000000000060e-02 1.573400000000000146e-02 1.608700000000000060e-02 1.573300000000000046e-02 1.608700000000000060e-02 1.642300000000000010e-02 1.642199999999999910e-02 1.608700000000000060e-02 1.642199999999999910e-02 1.608700000000000060e-02 1.642300000000000010e-02 1.673399999999999888e-02 1.673300000000000134e-02 1.642300000000000010e-02 1.673300000000000134e-02 1.642199999999999910e-02 1.673399999999999888e-02 1.702100000000000141e-02 1.702100000000000141e-02 1.673399999999999888e-02 1.702100000000000141e-02 1.673300000000000134e-02 1.702100000000000141e-02 1.729400000000000034e-02 1.729299999999999934e-02 1.702100000000000141e-02 1.729299999999999934e-02 1.702100000000000141e-02 1.729400000000000034e-02 1.754599999999999910e-02 1.754500000000000157e-02 1.729400000000000034e-02 1.754500000000000157e-02 1.729299999999999934e-02 1.754599999999999910e-02 1.778100000000000167e-02 1.778100000000000167e-02 1.754599999999999910e-02 1.778100000000000167e-02 1.754500000000000157e-02 1.778100000000000167e-02 1.799699999999999911e-02 1.799699999999999911e-02 1.778100000000000167e-02 1.799699999999999911e-02 1.778100000000000167e-02 1.799699999999999911e-02 1.818900000000000031e-02 1.818900000000000031e-02 1.799699999999999911e-02 1.818900000000000031e-02 1.799699999999999911e-02 1.818900000000000031e-02 1.836199999999999985e-02 1.836199999999999985e-02 1.818900000000000031e-02 1.836199999999999985e-02 1.818900000000000031e-02 1.836199999999999985e-02 1.851600000000000121e-02 1.851600000000000121e-02 1.836199999999999985e-02 1.851600000000000121e-02 1.836199999999999985e-02 1.851600000000000121e-02 1.864899999999999891e-02 1.864899999999999891e-02 1.851600000000000121e-02 1.864899999999999891e-02 1.851600000000000121e-02 1.864899999999999891e-02 1.875999999999999890e-02 1.875999999999999890e-02 1.864899999999999891e-02 1.875999999999999890e-02 1.864899999999999891e-02 1.875999999999999890e-02 1.884800000000000017e-02 1.884800000000000017e-02 1.875999999999999890e-02 1.884800000000000017e-02 1.875999999999999890e-02 1.884800000000000017e-02 1.891500000000000126e-02 1.891500000000000126e-02 1.884800000000000017e-02 1.891500000000000126e-02 1.884800000000000017e-02 1.891500000000000126e-02 1.896099999999999869e-02 1.896099999999999869e-02 1.891500000000000126e-02 1.896099999999999869e-02 1.891500000000000126e-02 1.896099999999999869e-02 1.898800000000000140e-02 1.898800000000000140e-02 1.896099999999999869e-02 1.898800000000000140e-02 1.896099999999999869e-02 1.898800000000000140e-02 1.899299999999999947e-02 1.899299999999999947e-02 1.898800000000000140e-02 1.899299999999999947e-02 1.898800000000000140e-02 1.899299999999999947e-02 1.897700000000000081e-02 1.897700000000000081e-02 1.899299999999999947e-02 1.897700000000000081e-02 1.899299999999999947e-02 1.897700000000000081e-02 1.893999999999999850e-02 1.894099999999999950e-02 1.897700000000000081e-02 1.894099999999999950e-02 1.897700000000000081e-02 1.893999999999999850e-02 1.888099999999999848e-02 1.888099999999999848e-02 1.893999999999999850e-02 1.888099999999999848e-02 1.894099999999999950e-02 1.888099999999999848e-02 1.880000000000000074e-02 1.880099999999999827e-02 1.888099999999999848e-02 1.880099999999999827e-02 1.888099999999999848e-02 1.880000000000000074e-02 1.869900000000000034e-02 1.869900000000000034e-02 1.880000000000000074e-02 1.869900000000000034e-02 1.880099999999999827e-02 1.869900000000000034e-02 1.857699999999999976e-02 1.857699999999999976e-02 1.869900000000000034e-02 1.857699999999999976e-02 1.869900000000000034e-02 1.857699999999999976e-02 1.843699999999999853e-02 1.843699999999999853e-02 1.857699999999999976e-02 1.843699999999999853e-02 1.857699999999999976e-02 1.843699999999999853e-02 1.827799999999999911e-02 1.827799999999999911e-02 1.843699999999999853e-02 1.827799999999999911e-02 1.843699999999999853e-02 1.827799999999999911e-02 1.809499999999999997e-02 1.809499999999999997e-02 1.827799999999999911e-02 1.809499999999999997e-02 1.827799999999999911e-02 1.809499999999999997e-02 1.788999999999999965e-02 1.788999999999999965e-02 1.809499999999999997e-02 1.788999999999999965e-02 1.809499999999999997e-02 1.788999999999999965e-02 1.766300000000000162e-02 1.766399999999999915e-02 1.788999999999999965e-02 1.766399999999999915e-02 1.788999999999999965e-02 1.766300000000000162e-02 1.741799999999999946e-02 1.741799999999999946e-02 1.766300000000000162e-02 1.741799999999999946e-02 1.766399999999999915e-02 1.741799999999999946e-02 1.715399999999999911e-02 1.715399999999999911e-02 1.741799999999999946e-02 1.715399999999999911e-02 1.741799999999999946e-02 1.715399999999999911e-02 1.686500000000000152e-02 1.686599999999999905e-02 1.715399999999999911e-02 1.686599999999999905e-02 1.715399999999999911e-02 1.686500000000000152e-02 1.656099999999999933e-02 1.656200000000000033e-02 1.686500000000000152e-02 1.656200000000000033e-02 1.686599999999999905e-02 1.656099999999999933e-02 1.624199999999999949e-02 1.624300000000000049e-02 1.656099999999999933e-02 1.624300000000000049e-02 1.656200000000000033e-02 1.624199999999999949e-02 1.589899999999999994e-02 1.589899999999999994e-02 1.624199999999999949e-02 1.589899999999999994e-02 1.624300000000000049e-02 1.589899999999999994e-02 1.553799999999999973e-02 1.553900000000000073e-02 1.589899999999999994e-02 1.553900000000000073e-02 1.589899999999999994e-02 1.553799999999999973e-02 1.515299999999999980e-02 1.515400000000000080e-02 1.553799999999999973e-02 1.515400000000000080e-02 1.553900000000000073e-02 1.515299999999999980e-02 1.475199999999999949e-02 1.475399999999999975e-02 1.515299999999999980e-02 1.475399999999999975e-02 1.515400000000000080e-02 1.475199999999999949e-02 1.433800000000000005e-02 1.434000000000000032e-02 1.475199999999999949e-02 1.434000000000000032e-02 1.475399999999999975e-02 1.433800000000000005e-02 1.391399999999999929e-02 1.391599999999999955e-02 1.433800000000000005e-02 1.391599999999999955e-02 1.434000000000000032e-02 1.391399999999999929e-02 1.347399999999999987e-02 1.347600000000000013e-02 1.391399999999999929e-02 1.347600000000000013e-02 1.391599999999999955e-02 1.347399999999999987e-02 1.301899999999999932e-02 1.302099999999999959e-02 1.347399999999999987e-02 1.302099999999999959e-02 1.347600000000000013e-02 1.301899999999999932e-02 1.254300000000000033e-02 1.254599999999999986e-02 1.301899999999999932e-02 1.254599999999999986e-02 1.302099999999999959e-02 1.254300000000000033e-02 1.205299999999999948e-02 1.205600000000000074e-02 1.254300000000000033e-02 1.205600000000000074e-02 1.254599999999999986e-02 1.205299999999999948e-02 1.155800000000000056e-02 1.156100000000000010e-02 1.205299999999999948e-02 1.156100000000000010e-02 1.205600000000000074e-02 1.155800000000000056e-02 1.105800000000000012e-02 1.106099999999999965e-02 1.155800000000000056e-02 1.106099999999999965e-02 1.156100000000000010e-02 1.105800000000000012e-02 1.055299999999999988e-02 1.055700000000000041e-02 1.105800000000000012e-02 1.055700000000000041e-02 1.106099999999999965e-02 1.055299999999999988e-02 1.004500000000000011e-02 1.004900000000000064e-02 1.055299999999999988e-02 1.004900000000000064e-02 1.055700000000000041e-02 1.004500000000000011e-02 9.532999999999999807e-03 9.539000000000000604e-03 1.004500000000000011e-02 9.539000000000000604e-03 1.004900000000000064e-02 9.532999999999999807e-03 9.020000000000000240e-03 9.025999999999999301e-03 9.532999999999999807e-03 9.025999999999999301e-03 9.539000000000000604e-03 9.020000000000000240e-03 8.503999999999999407e-03 8.510999999999999469e-03 9.020000000000000240e-03 8.510999999999999469e-03 9.025999999999999301e-03 8.503999999999999407e-03 7.988000000000000309e-03 7.995000000000000370e-03 8.503999999999999407e-03 7.995000000000000370e-03 8.510999999999999469e-03 7.988000000000000309e-03 7.472000000000000343e-03 7.479999999999999670e-03 7.988000000000000309e-03 7.479999999999999670e-03 7.995000000000000370e-03 7.472000000000000343e-03 6.956999999999999643e-03 6.965999999999999970e-03 7.472000000000000343e-03 6.965999999999999970e-03 7.479999999999999670e-03 6.956999999999999643e-03 6.444000000000000075e-03 6.453999999999999668e-03 6.956999999999999643e-03 6.453999999999999668e-03 6.965999999999999970e-03 6.444000000000000075e-03 5.931999999999999773e-03 5.943000000000000366e-03 6.444000000000000075e-03 5.943000000000000366e-03 6.453999999999999668e-03 5.931999999999999773e-03 5.422999999999999869e-03 5.433999999999999594e-03 5.931999999999999773e-03 5.433999999999999594e-03 5.943000000000000366e-03 5.422999999999999869e-03 4.915000000000000098e-03 4.928000000000000089e-03 5.422999999999999869e-03 4.928000000000000089e-03 5.433999999999999594e-03 4.915000000000000098e-03 4.410999999999999990e-03 4.425000000000000114e-03 4.915000000000000098e-03 4.425000000000000114e-03 4.928000000000000089e-03 4.410999999999999990e-03 3.911000000000000414e-03 3.924999999999999670e-03 4.410999999999999990e-03 3.924999999999999670e-03 4.425000000000000114e-03 3.911000000000000414e-03 3.415000000000000067e-03 3.429999999999999889e-03 3.911000000000000414e-03 3.429999999999999889e-03 3.924999999999999670e-03 3.415000000000000067e-03 2.922999999999999817e-03 2.939000000000000206e-03 3.415000000000000067e-03 2.939000000000000206e-03 3.429999999999999889e-03 2.922999999999999817e-03 2.435999999999999797e-03 2.452999999999999885e-03 2.922999999999999817e-03 2.452999999999999885e-03 2.939000000000000206e-03 2.233999999999999875e-03 2.252000000000000095e-03 2.733999999999999885e-03 2.233999999999999875e-03 2.733999999999999885e-03 2.716999999999999797e-03 1.755999999999999965e-03 1.775000000000000102e-03 2.252000000000000095e-03 1.755999999999999965e-03 2.252000000000000095e-03 2.233999999999999875e-03 1.283000000000000069e-03 1.302999999999999905e-03 1.775000000000000102e-03 1.283000000000000069e-03 1.775000000000000102e-03 1.755999999999999965e-03 8.159999999999999936e-04 8.379999999999999862e-04 1.302999999999999905e-03 8.159999999999999936e-04 1.302999999999999905e-03 1.283000000000000069e-03 3.539999999999999853e-04 3.770000000000000022e-04 8.379999999999999862e-04 3.539999999999999853e-04 8.379999999999999862e-04 8.159999999999999936e-04 -1.010000000000000020e-04 -7.700000000000000139e-05 3.770000000000000022e-04 -1.010000000000000020e-04 3.770000000000000022e-04 3.539999999999999853e-04 -5.509999999999999490e-04 -5.249999999999999676e-04 -7.700000000000000139e-05 -5.509999999999999490e-04 -7.700000000000000139e-05 -1.010000000000000020e-04 -9.940000000000000918e-04 -9.659999999999999533e-04 -5.249999999999999676e-04 -9.940000000000000918e-04 -5.249999999999999676e-04 -5.509999999999999490e-04 -1.430000000000000064e-03 -1.400999999999999902e-03 -9.659999999999999533e-04 -1.430000000000000064e-03 -9.659999999999999533e-04 -9.940000000000000918e-04 -1.860000000000000108e-03 -1.828999999999999897e-03 -1.400999999999999902e-03 -1.860000000000000108e-03 -1.400999999999999902e-03 -1.430000000000000064e-03 -2.282999999999999873e-03 -2.250999999999999963e-03 -1.828999999999999897e-03 -2.282999999999999873e-03 -1.828999999999999897e-03 -1.860000000000000108e-03 -2.699000000000000010e-03 -2.665999999999999967e-03 -2.250999999999999963e-03 -2.699000000000000010e-03 -2.250999999999999963e-03 -2.282999999999999873e-03 -3.109999999999999917e-03 -3.075000000000000042e-03 -2.665999999999999967e-03 -3.109999999999999917e-03 -2.665999999999999967e-03 -2.699000000000000010e-03 -3.514999999999999895e-03 -3.478000000000000189e-03 -3.075000000000000042e-03 -3.514999999999999895e-03 -3.075000000000000042e-03 -3.109999999999999917e-03 -3.916000000000000210e-03 -3.877999999999999937e-03 -3.478000000000000189e-03 -3.916000000000000210e-03 -3.478000000000000189e-03 -3.514999999999999895e-03 -4.310999999999999728e-03 -4.271999999999999756e-03 -3.877999999999999937e-03 -4.310999999999999728e-03 -3.877999999999999937e-03 -3.916000000000000210e-03 -4.700000000000000185e-03 -4.658999999999999947e-03 -4.271999999999999756e-03 -4.700000000000000185e-03 -4.271999999999999756e-03 -4.310999999999999728e-03 -5.080999999999999579e-03 -5.039000000000000076e-03 -4.658999999999999947e-03 -5.080999999999999579e-03 -4.658999999999999947e-03 -4.700000000000000185e-03 -5.455126697529332283e-03 -5.410347249374426737e-03 -5.039000000000000076e-03 -5.455126697529332283e-03 -5.039000000000000076e-03 -5.080999999999999579e-03 -5.820222263242321933e-03 -5.775846672300373637e-03 -5.410347249374426737e-03 -5.820222263242321933e-03 -5.410347249374426737e-03 -5.455126697529332283e-03 -6.183359838040083760e-03 -6.139744484913595320e-03 -5.775846672300373637e-03 -6.183359838040083760e-03 -5.775846672300373637e-03 -5.820222263242321933e-03 -6.544806155068686425e-03 -6.497268083929074248e-03 -6.139744484913595320e-03 -6.544806155068686425e-03 -6.139744484913595320e-03 -6.183359838040083760e-03 -6.896746177624399170e-03 -6.847968011147036703e-03 -6.497268083929074248e-03 -6.896746177624399170e-03 -6.497268083929074248e-03 -6.544806155068686425e-03 -7.241948869428337272e-03 -7.191900544965575473e-03 -6.847968011147036703e-03 -7.241948869428337272e-03 -6.847968011147036703e-03 -6.896746177624399170e-03 -7.581718373559152672e-03 -7.528594965324962758e-03 -7.191900544965575473e-03 -7.581718373559152672e-03 -7.191900544965575473e-03 -7.241948869428337272e-03 -7.913262826539518152e-03 -7.860019027107444101e-03 -7.528594965324962758e-03 -7.913262826539518152e-03 -7.528594965324962758e-03 -7.581718373559152672e-03 -8.239677263956305536e-03 -8.183967215955420538e-03 -7.860019027107444101e-03 -8.239677263956305536e-03 -7.860019027107444101e-03 -7.913262826539518152e-03 -8.559946045546983420e-03 -8.503371737683165441e-03 -8.183967215955420538e-03 -8.559946045546983420e-03 -8.183967215955420538e-03 -8.239677263956305536e-03 -8.878438470153472359e-03 -8.822022712082849827e-03 -8.503371737683165441e-03 -8.878438470153472359e-03 -8.503371737683165441e-03 -8.559946045546983420e-03 -9.194465970122755322e-03 -9.138464040896581916e-03 -8.822022712082849827e-03 -9.194465970122755322e-03 -8.822022712082849827e-03 -8.878438470153472359e-03 -9.508023646594532252e-03 -9.451292138993639541e-03 -9.138464040896581916e-03 -9.508023646594532252e-03 -9.138464040896581916e-03 -9.194465970122755322e-03 -9.817750589012930532e-03 -9.759299247490990301e-03 -9.451292138993639541e-03 -9.817750589012930532e-03 -9.451292138993639541e-03 -9.508023646594532252e-03 -1.012114855268295491e-02 -1.006233237205323740e-02 -9.759299247490990301e-03 -1.012114855268295491e-02 -9.759299247490990301e-03 -9.817750589012930532e-03 -1.042156334848685743e-02 -1.036120351551580478e-02 -1.006233237205323740e-02 -1.042156334848685743e-02 -1.006233237205323740e-02 -1.012114855268295491e-02 -1.071756375581222123e-02 -1.065634522952744502e-02 -1.036120351551580478e-02 -1.071756375581222123e-02 -1.036120351551580478e-02 -1.042156334848685743e-02 -1.100813519286342190e-02 -1.094426760936700535e-02 -1.065634522952744502e-02 -1.100813519286342190e-02 -1.065634522952744502e-02 -1.071756375581222123e-02 -1.128992746143357533e-02 -1.122362541404023362e-02 -1.094426760936700535e-02 -1.128992746143357533e-02 -1.094426760936700535e-02 -1.100813519286342190e-02 -1.156365442686687998e-02 -1.149263597196657424e-02 -1.122362541404023362e-02 -1.156365442686687998e-02 -1.122362541404023362e-02 -1.128992746143357533e-02 -1.182549157913897163e-02 -1.175121474047605662e-02 -1.149263597196657424e-02 -1.182549157913897163e-02 -1.149263597196657424e-02 -1.156365442686687998e-02 -1.207785409943675989e-02 -1.199912888025186572e-02 -1.175121474047605662e-02 -1.207785409943675989e-02 -1.175121474047605662e-02 -1.182549157913897163e-02 -1.232150625029767611e-02 -1.224172245976357792e-02 -1.199912888025186572e-02 -1.232150625029767611e-02 -1.199912888025186572e-02 -1.207785409943675989e-02 -1.256416869823699482e-02 -1.248607317635326563e-02 -1.224172245976357792e-02 -1.256416869823699482e-02 -1.224172245976357792e-02 -1.232150625029767611e-02 -1.280918567665870721e-02 -1.273326518079934827e-02 -1.248607317635326563e-02 -1.280918567665870721e-02 -1.248607317635326563e-02 -1.256416869823699482e-02 -1.305802826426504838e-02 -1.298832454638077817e-02 -1.273326518079934827e-02 -1.305802826426504838e-02 -1.273326518079934827e-02 -1.280918567665870721e-02 -1.331807033119627483e-02 -1.325413397112343294e-02 -1.298832454638077817e-02 -1.331807033119627483e-02 -1.298832454638077817e-02 -1.305802826426504838e-02 -1.358651929163068837e-02 -1.352481170772869452e-02 -1.325413397112343294e-02 -1.358651929163068837e-02 -1.325413397112343294e-02 -1.331807033119627483e-02 -1.385625448529539082e-02 -1.379548959183305758e-02 -1.352481170772869452e-02 -1.385625448529539082e-02 -1.352481170772869452e-02 -1.358651929163068837e-02 -1.412110930009529731e-02 -1.405668576142613153e-02 -1.379548959183305758e-02 -1.412110930009529731e-02 -1.379548959183305758e-02 -1.385625448529539082e-02 -1.437519541167544233e-02 -1.430880283769035179e-02 -1.405668576142613153e-02 -1.437519541167544233e-02 -1.405668576142613153e-02 -1.412110930009529731e-02 -1.462350233944147843e-02 -1.455466308159935988e-02 -1.430880283769035179e-02 -1.462350233944147843e-02 -1.430880283769035179e-02 -1.437519541167544233e-02 -1.486193983855314815e-02 -1.478701880420565072e-02 -1.455466308159935988e-02 -1.486193983855314815e-02 -1.455466308159935988e-02 -1.462350233944147843e-02 -1.508274354700710543e-02 -1.499914857200579724e-02 -1.478701880420565072e-02 -1.508274354700710543e-02 -1.478701880420565072e-02 -1.486193983855314815e-02 -1.528628326269004627e-02 -1.519359887708192705e-02 -1.499914857200579724e-02 -1.528628326269004627e-02 -1.499914857200579724e-02 -1.508274354700710543e-02 -1.547122914352905797e-02 -1.537078268240936116e-02 -1.519359887708192705e-02 -1.547122914352905797e-02 -1.519359887708192705e-02 -1.528628326269004627e-02 -1.565023645345731476e-02 -1.555538585309317046e-02 -1.537078268240936116e-02 -1.565023645345731476e-02 -1.537078268240936116e-02 -1.547122914352905797e-02 -1.585307272694123568e-02 -1.577811105034923958e-02 -1.555538585309317046e-02 -1.585307272694123568e-02 -1.555538585309317046e-02 -1.565023645345731476e-02 -1.610512652398063752e-02 -1.605767107025162649e-02 -1.577811105034923958e-02 -1.610512652398063752e-02 -1.577811105034923958e-02 -1.585307272694123568e-02 -1.641170503072670456e-02 -1.639013959195816106e-02 -1.605767107025162649e-02 -1.641170503072670456e-02 -1.605767107025162649e-02 -1.610512652398063752e-02 -1.676303722413592309e-02 -1.676279816650931564e-02 -1.639013959195816106e-02 -1.676303722413592309e-02 -1.639013959195816106e-02 -1.641170503072670456e-02 -1.713670368031432190e-02 -1.713982175547344375e-02 -1.676279816650931564e-02 -1.713670368031432190e-02 -1.676279816650931564e-02 -1.676303722413592309e-02 -1.748582854518783078e-02 -1.748378404390597482e-02 -1.713982175547344375e-02 -1.748582854518783078e-02 -1.713982175547344375e-02 -1.713670368031432190e-02 -1.782468546370341578e-02 -1.781511427644106443e-02 -1.748378404390597482e-02 -1.782468546370341578e-02 -1.748378404390597482e-02 -1.748582854518783078e-02 -1.803545197315624404e-02 -1.793217867245011296e-02 -1.781511427644106443e-02 -1.803545197315624404e-02 -1.781511427644106443e-02 -1.782468546370341578e-02 -1.808684068501115183e-02 -1.794757096191263585e-02 -1.793217867245011296e-02 -1.808684068501115183e-02 -1.793217867245011296e-02 -1.803545197315624404e-02 -1.800785353108864603e-02 -1.775982667993257491e-02 -1.794757096191263585e-02 -1.800785353108864603e-02 -1.794757096191263585e-02 -1.808684068501115183e-02 -1.781050861964749224e-02 -1.753243885291299459e-02 -1.775982667993257491e-02 -1.781050861964749224e-02 -1.775982667993257491e-02 -1.800785353108864603e-02 -1.761181629630623885e-02 -1.738235704813055962e-02 -1.753243885291299459e-02 -1.761181629630623885e-02 -1.753243885291299459e-02 -1.781050861964749224e-02 -1.754617214645769196e-02 -1.738303391753782609e-02 -1.738235704813055962e-02 -1.754617214645769196e-02 -1.738235704813055962e-02 -1.761181629630623885e-02 -1.756163307487089084e-02 -1.742001628505878211e-02 -1.738303391753782609e-02 -1.756163307487089084e-02 -1.738303391753782609e-02 -1.754617214645769196e-02 -1.762345680359897818e-02 -1.753444952679364746e-02 -1.742001628505878211e-02 -1.762345680359897818e-02 -1.742001628505878211e-02 -1.756163307487089084e-02 -1.786622268915329451e-02 -1.792441810092786081e-02 -1.753444952679364746e-02 -1.786622268915329451e-02 -1.753444952679364746e-02 -1.762345680359897818e-02 -1.833490972772694114e-02 -1.841470466615436480e-02 -1.792441810092786081e-02 -1.833490972772694114e-02 -1.792441810092786081e-02 -1.786622268915329451e-02 -1.876261318335138012e-02 -1.878926830114806268e-02 -1.841470466615436480e-02 -1.876261318335138012e-02 -1.841470466615436480e-02 -1.833490972772694114e-02 -1.901427354615716631e-02 -1.895769330947971384e-02 -1.878926830114806268e-02 -1.901427354615716631e-02 -1.878926830114806268e-02 -1.876261318335138012e-02 -1.880819716266250718e-02 -1.833633844696425097e-02 -1.895769330947971384e-02 -1.880819716266250718e-02 -1.895769330947971384e-02 -1.901427354615716631e-02 -1.793060741837046099e-02 -1.759264608487203993e-02 -1.833633844696425097e-02 -1.793060741837046099e-02 -1.833633844696425097e-02 -1.880819716266250718e-02 -1.750268189770016330e-02 -1.738761741551822851e-02 -1.759264608487203993e-02 -1.750268189770016330e-02 -1.759264608487203993e-02 -1.793060741837046099e-02 -1.744115876173569016e-02 -1.732457823341983921e-02 -1.738761741551822851e-02 -1.744115876173569016e-02 -1.738761741551822851e-02 -1.750268189770016330e-02 -1.736408534418518168e-02 -1.720082116253524723e-02 -1.732457823341983921e-02 -1.736408534418518168e-02 -1.732457823341983921e-02 -1.744115876173569016e-02 -1.825922142428564737e-02 -1.811502975940947058e-02 -1.720082116253524723e-02 -1.825922142428564737e-02 -1.720082116253524723e-02 -1.736408534418518168e-02 -1.826762249861694359e-02 -1.737416046694073221e-02 -1.811502975940947058e-02 -1.826762249861694359e-02 -1.811502975940947058e-02 -1.825922142428564737e-02 -1.755034338978174457e-02 -1.734529137335211538e-02 -1.737416046694073221e-02 -1.755034338978174457e-02 -1.737416046694073221e-02 -1.826762249861694359e-02 -1.723874417399375372e-02 -1.700815398738040121e-02 -1.734529137335211538e-02 -1.723874417399375372e-02 -1.734529137335211538e-02 -1.755034338978174457e-02 -1.719627149561270968e-02 -1.701682262663681278e-02 -1.700815398738040121e-02 -1.719627149561270968e-02 -1.700815398738040121e-02 -1.723874417399375372e-02 -1.726360691199351274e-02 -1.713335127378470130e-02 -1.701682262663681278e-02 -1.726360691199351274e-02 -1.701682262663681278e-02 -1.719627149561270968e-02 -1.741500293925309431e-02 -1.729199999999999834e-02 -1.713335127378470130e-02 -1.741500293925309431e-02 -1.713335127378470130e-02 -1.726360691199351274e-02 -1.757399999999999934e-02 -1.745299999999999976e-02 -1.729199999999999834e-02 -1.757399999999999934e-02 -1.729199999999999834e-02 -1.741500293925309431e-02 -1.773500000000000076e-02 -1.761700000000000071e-02 -1.745299999999999976e-02 -1.773500000000000076e-02 -1.745299999999999976e-02 -1.757399999999999934e-02 -1.789900000000000171e-02 -1.778400000000000120e-02 -1.761700000000000071e-02 -1.789900000000000171e-02 -1.761700000000000071e-02 -1.773500000000000076e-02 -1.806500000000000120e-02 -1.795100000000000168e-02 -1.778400000000000120e-02 -1.806500000000000120e-02 -1.778400000000000120e-02 -1.789900000000000171e-02 -1.823200000000000168e-02 -1.812100000000000169e-02 -1.795100000000000168e-02 -1.823200000000000168e-02 -1.795100000000000168e-02 -1.806500000000000120e-02 -1.840100000000000069e-02 -1.829300000000000023e-02 -1.812100000000000169e-02 -1.840100000000000069e-02 -1.812100000000000169e-02 -1.823200000000000168e-02 -1.857100000000000070e-02 -1.846597951333526361e-02 -1.829300000000000023e-02 -1.857100000000000070e-02 -1.829300000000000023e-02 -1.840100000000000069e-02 -1.874267283070795917e-02 -1.863430339094770613e-02 -1.846597951333526361e-02 -1.874267283070795917e-02 -1.846597951333526361e-02 -1.857100000000000070e-02 -1.885628230830541097e-02 -1.871538728894692888e-02 -1.863430339094770613e-02 -1.885628230830541097e-02 -1.863430339094770613e-02 -1.874267283070795917e-02 -1.889843065039030490e-02 -1.864780100194924836e-02 -1.871538728894692888e-02 -1.889843065039030490e-02 -1.871538728894692888e-02 -1.885628230830541097e-02 -1.866761535981252898e-02 -1.848949287902335384e-02 -1.864780100194924836e-02 -1.866761535981252898e-02 -1.864780100194924836e-02 -1.889843065039030490e-02 -1.870749995126187379e-02 -1.878999506442040335e-02 -1.848949287902335384e-02 -1.870749995126187379e-02 -1.848949287902335384e-02 -1.866761535981252898e-02 -1.937316790502618610e-02 -1.997396103062980266e-02 -1.878999506442040335e-02 -1.937316790502618610e-02 -1.878999506442040335e-02 -1.870749995126187379e-02 -2.113697293294502719e-02 -2.204049571868038973e-02 -1.997396103062980266e-02 -2.113697293294502719e-02 -1.997396103062980266e-02 -1.937316790502618610e-02 -2.312157826966050253e-02 -2.371153663953877097e-02 -2.204049571868038973e-02 -2.312157826966050253e-02 -2.204049571868038973e-02 -2.113697293294502719e-02 -2.419867687269475209e-02 -2.427751864106550070e-02 -2.371153663953877097e-02 -2.419867687269475209e-02 -2.371153663953877097e-02 -2.312157826966050253e-02 -2.423321915709621480e-02 -2.402080910873639549e-02 -2.427751864106550070e-02 -2.423321915709621480e-02 -2.427751864106550070e-02 -2.419867687269475209e-02 -2.373168136957494456e-02 -2.349562757562205506e-02 -2.402080910873639549e-02 -2.373168136957494456e-02 -2.402080910873639549e-02 -2.423321915709621480e-02 -2.317532626221568276e-02 -2.312873217238644794e-02 -2.349562757562205506e-02 -2.317532626221568276e-02 -2.349562757562205506e-02 -2.373168136957494456e