VARIABLES="X", "Y", "Z", "M"
ZONE T="SINGLE"
NODES=4722
ELEMENTS=1574
DATAPACKING=BLOCK
ZONETYPE=FETRIANGLE
VARLOCATION=([4-4]=CELLCENTERED)
-0.04777722 -0.04708378 -0.042738179999999994 -0.031010789999999996 -0.031627619999999995 -0.029454179999999996 -0.0436026 -0.044413 -0.041700709999999995 -0.008674049999999996 -0.014519899999999995 -0.010526319999999999 -0.04535972 -0.04775916 -0.04443845 -0.038875650000000005 -0.039958959999999995 -0.038308390000000005 -0.039371029999999994 -0.04154665 -0.038926300000000004 -0.04298379 -0.04591976 -0.04535972 -0.04080809999999999 -0.044136 -0.04298379 -0.044372589999999996 -0.045863560000000005 -0.042132159999999995 -0.04443845 -0.04775916 -0.04765257 -0.04591976 -0.04775916 -0.04535972 -0.05165521 -0.054039960000000005 -0.048696689999999994 -0.06336094 -0.05829897999999999 -0.06153772999999999 -0.04154665 -0.044136 -0.04080809999999999 -0.054039960000000005 -0.05649666999999999 -0.052004310000000005 -0.04777722 -0.049108160000000005 -0.04708378 -0.05626416 -0.06153772999999999 -0.05671916 -0.042216590000000005 -0.042132159999999995 -0.039958959999999995 -0.0383133 -0.038926300000000004 -0.04080809999999999 -0.039958959999999995 -0.042132159999999995 -0.038308390000000005 -0.04394021 -0.045863560000000005 -0.04722331999999999 -0.04722331999999999 -0.049488620000000004 -0.04874807999999999 -0.04775916 -0.050405849999999995 -0.04765257 -0.02571827 -0.025242269999999997 -0.02742017 -0.042216590000000005 -0.044372589999999996 -0.042132159999999995 -0.04644833 -0.04915869999999999 -0.045381529999999996 -0.05829897999999999 -0.053935630000000005 -0.05393169999999999 -0.025242269999999997 -0.022311209999999998 -0.026839669999999996 -0.029454179999999996 -0.032264799999999996 -0.031010789999999996 -0.045863560000000005 -0.04394021 -0.042132159999999995 -0.031627619999999995 -0.03457562 -0.035052849999999997 -0.04765257 -0.050405849999999995 -0.04929408 -0.03147295 -0.032684529999999996 -0.02964236 -0.038926300000000004 -0.04154665 -0.04080809999999999 -0.042132159999999995 -0.039457009999999994 -0.038308390000000005 -0.045381529999999996 -0.04777722 -0.042738179999999994 -0.031010789999999996 -0.03457562 -0.031627619999999995 -0.01493796 -0.011992749999999996 -0.010100499999999998 -0.05026049 -0.05225608 -0.04756706 -0.03656942 -0.03651758 -0.03596542 -0.005980179999999998 0.0015441600000000028 -0.003535589999999998 -0.009070429999999997 -0.005980179999999998 -0.003535589999999998 -0.039731579999999996 -0.04028365 -0.03806989 -0.02489641 -0.019341829999999997 -0.018755719999999997 -0.039400319999999996 -0.03924952 -0.03694593 6.085000000000118e-05 -0.006582109999999995 -0.005351419999999999 0.0006336099999999997 -0.005071609999999997 -0.005134399999999997 0.00559113 0.010344050000000002 0.011104510000000001 -0.03924952 -0.03709598 -0.03694593 -0.043543889999999995 -0.041070180000000005 -0.042684480000000004 -0.049852749999999994 -0.049577550000000005 -0.048110209999999994 -0.04394021 -0.04722331999999999 -0.04410365 -0.04604821 -0.044605589999999994 -0.044413 -0.036895859999999996 -0.03716506 -0.037278519999999996 -0.04275143 -0.043866880000000004 -0.04146786 -0.05238270999999999 -0.05393169999999999 -0.05026927 -0.01871996 -0.026839669999999996 -0.022311209999999998 0.01390323 0.014755530000000001 0.01282802 -0.044413 -0.042447660000000005 -0.04171365 -0.025242269999999997 -0.021653529999999997 -0.022311209999999998 -0.06520572 -0.06251121000000001 -0.06358588000000001 -0.04350422 -0.04535972 -0.04443845 0.005181080000000001 0.011104510000000001 0.009276820000000002 -0.0064496399999999995 -0.0032188199999999972 0.0007344100000000013 -0.02030134 -0.01872385 -0.021653529999999997 -0.06585014 -0.06520572 -0.06358588000000001 -0.01872385 -0.016503709999999998 -0.022311209999999998 -0.021653529999999997 -0.01872385 -0.022311209999999998 -0.016503709999999998 -0.01871996 -0.022311209999999998 -0.039400319999999996 -0.03694593 -0.03742542 -0.03742542 -0.03694593 -0.03695439 0.016016970000000002 0.014517190000000001 0.015215430000000002 -0.011992749999999996 -0.0063581299999999966 -0.004460159999999998 -0.06032984 -0.06182494 -0.06387538000000001 -0.015802289999999997 -0.012857279999999999 -0.016503709999999998 -0.012277919999999998 -0.01871996 -0.012857279999999999 -0.015802289999999997 -0.01199625 -0.012857279999999999 -0.011647239999999996 -0.01199625 -0.015802289999999997 -0.01199625 -0.009393239999999997 -0.012277919999999998 -0.012857279999999999 -0.01199625 -0.012277919999999998 -0.009393239999999997 -0.005071609999999997 -0.00417729 -0.028323049999999995 -0.030369 -0.029454179999999996 -0.044413 -0.04171365 -0.041700709999999995 -0.047083599999999996 -0.047303019999999994 -0.04604821 -0.007597159999999999 -0.00417729 -0.0049962099999999975 -0.05649666999999999 -0.06032984 -0.05626416 0.005181080000000001 0.00559113 0.011104510000000001 -0.04146786 -0.03979693 -0.03827489 -0.03726313 -0.037896809999999996 -0.038616740000000004 -0.03053045 -0.025076719999999997 -0.02489641 -0.025076719999999997 -0.019341829999999997 -0.02489641 -0.04535972 -0.04350422 -0.04298379 0.00652873 0.009276820000000002 0.01077748 -0.00417729 0.0006336099999999997 0.0006353800000000014 -0.0014678999999999977 0.0006353800000000014 0.0008930500000000029 0.00661687 0.00978931 0.00772925 -0.045381529999999996 -0.042738179999999994 -0.0420703 -0.037896809999999996 -0.03726313 -0.036895859999999996 -0.04298379 -0.04350422 -0.04080809999999999 -0.06630981999999999 -0.06600365 -0.06501211000000001 -0.01984287 -0.018755719999999997 -0.011992749999999996 -0.032684529999999996 -0.032264799999999996 -0.030369 -0.014519899999999995 -0.01723354 -0.010526319999999999 -0.042447660000000005 -0.039400319999999996 -0.04028365 -0.03923083 -0.04146786 -0.03827489 -0.047083599999999996 -0.044413 -0.0436026 0.0043832900000000015 0.0006353800000000014 0.0006336099999999997 -0.01871996 -0.012277919999999998 -0.021076289999999998 -0.006355739999999999 -0.00037355000000000027 -0.0012917799999999993 -0.01416104 -0.009070429999999997 -0.00861965 -0.015802289999999997 -0.01872385 -0.02030134 0.0016563800000000024 -0.004264879999999999 -0.0012917799999999993 -0.004264879999999999 -0.005351419999999999 -0.0120771 0.0011456700000000014 0.005181080000000001 0.009276820000000002 -0.005351419999999999 -0.006582109999999995 -0.01020323 -0.004264879999999999 -0.0120771 -0.007800040000000001 0.00978931 0.012106330000000002 0.013908060000000002 0.005288250000000001 0.013552570000000002 0.009184560000000001 -0.053935630000000005 -0.05225608 -0.05026049 0.00874248 0.003783050000000003 0.003407900000000002 0.011746580000000001 0.014013180000000002 0.013552570000000002 -0.04275058 -0.040509529999999995 -0.042447660000000005 0.0021235200000000003 0.007031020000000002 0.0006336099999999997 -0.03629574 -0.0341297 -0.038953930000000005 -0.01984287 -0.01493796 -0.01666529 0.00846906 0.00239841 0.007108400000000001 -0.03629574 -0.03360331 -0.0341297 -0.014269409999999996 -0.00861965 -0.0032188199999999972 0.003407900000000002 0.003783050000000003 -0.0015809299999999978 0.00846906 0.0050737 0.00239841 -0.029454179999999996 -0.027166219999999998 -0.028323049999999995 -0.04069179 -0.0341297 -0.035052849999999997 0.00874248 0.007108400000000001 0.003783050000000003 0.011746580000000001 0.005288250000000001 0.0050737 -0.0318023 -0.031070059999999997 -0.03360331 -0.04616894999999999 -0.046723560000000004 -0.048110209999999994 -0.0318023 -0.0299107 -0.031070059999999997 -0.004460159999999998 -0.009508049999999997 -0.010100499999999998 -0.006582109999999995 -0.005134399999999997 -0.01020323 0.0006336099999999997 -0.00417729 -0.005071609999999997 0.005288250000000001 0.009184560000000001 6.085000000000118e-05 0.0043832900000000015 0.00661687 0.0029522100000000003 0.015298470000000002 0.014013180000000002 0.013816300000000002 0.0043832900000000015 0.0029522100000000003 0.0006353800000000014 -0.018755719999999997 -0.014269409999999996 -0.0064496399999999995 0.00647238 0.007031020000000002 0.0021235200000000003 -0.009508049999999997 -0.004460159999999998 -0.006355739999999999 0.00647238 0.009184560000000001 0.007031020000000002 0.007108400000000001 0.0016563800000000024 0.003783050000000003 -0.028831799999999998 -0.031070059999999997 -0.0299107 -0.041700709999999995 -0.04171365 -0.04028365 0.00978931 0.00661687 0.007031020000000002 -0.03979693 -0.039731579999999996 -0.03827489 -0.01416104 -0.013670509999999997 -0.009070429999999997 6.085000000000118e-05 -0.005134399999999997 -0.006582109999999995 -0.02571827 -0.021653529999999997 -0.025242269999999997 0.005288250000000001 6.085000000000118e-05 -0.005351419999999999 -0.0015809299999999978 -0.00037355000000000027 -0.004460159999999998 -0.013670509999999997 -0.012292480000000001 -0.009070429999999997 -0.004460159999999998 -0.00037355000000000027 -0.006355739999999999 0.003407900000000002 0.0007344100000000013 0.00652873 0.0050737 -0.005351419999999999 -0.004264879999999999 0.009184560000000001 0.00647238 0.0021235200000000003 -0.0012917799999999993 -0.004264879999999999 -0.007800040000000001 0.011779730000000002 0.011291500000000001 0.01390323 0.003783050000000003 0.0016563800000000024 -0.0012917799999999993 -0.035052849999999997 -0.03893854 -0.04069179 0.005288250000000001 -0.005351419999999999 0.0050737 -0.005134399999999997 -0.011647239999999996 -0.01020323 -0.03656942 -0.03596542 -0.038731140000000004 -0.02571827 -0.027166219999999998 -0.02434993 -0.02434993 -0.027166219999999998 -0.026108269999999996 -0.02742017 -0.027166219999999998 -0.02571827 -0.03735924 -0.03802115 -0.03651758 -0.053217339999999995 -0.050429499999999995 -0.049108160000000005 0.00661687 0.004108870000000001 0.0029522100000000003 -0.005134399999999997 -0.005071609999999997 -0.011647239999999996 0.013552570000000002 0.005288250000000001 0.011746580000000001 0.013816300000000002 0.014013180000000002 0.011746580000000001 -0.02109494 -0.02571827 -0.02434993 0.00239841 0.0050737 -0.004264879999999999 -0.008359779999999997 0.0004600699999999999 -0.0021134599999999976 -0.019882279999999995 -0.02434993 -0.023468629999999997 -0.02109494 -0.021653529999999997 -0.02571827 -0.03640699 -0.037541689999999996 -0.03751416999999999 -0.014269409999999996 -0.01416104 -0.00861965 -0.019882279999999995 -0.02109494 -0.02434993 -0.02109494 -0.02030134 -0.021653529999999997 -0.0436026 -0.039731579999999996 -0.03979693 -0.03774451 -0.03596542 -0.03709598 -0.006355739999999999 -0.0012917799999999993 -0.007800040000000001 0.00239841 -0.004264879999999999 0.0016563800000000024 0.007031020000000002 0.00661687 0.0043832900000000015 0.009184560000000001 0.0021235200000000003 6.085000000000118e-05 -0.02056989 -0.01666529 -0.019882279999999995 -0.01680409 -0.02030134 -0.02109494 -0.01680409 -0.01776416 -0.02030134 -0.005071609999999997 -0.009393239999999997 -0.011647239999999996 -0.03924952 -0.038731140000000004 -0.03774451 -0.026108269999999996 -0.027166219999999998 -0.027369029999999996 0.003783050000000003 -0.0012917799999999993 -0.00037355000000000027 -0.02109494 -0.019882279999999995 -0.01680409 -0.01660143 -0.015802289999999997 -0.02030134 -0.01776416 -0.01660143 -0.02030134 -0.012776780000000001 -0.01680409 -0.019882279999999995 -0.058560949999999994 -0.05387611 -0.058211969999999995 -0.015802289999999997 -0.016503709999999998 -0.01872385 -0.01984287 -0.01666529 -0.02056989 -0.012776780000000001 -0.019882279999999995 -0.01666529 -0.01175209 -0.01776416 -0.01680409 -0.0120771 -0.01660143 -0.01776416 -0.01175209 -0.0120771 -0.01776416 0.011746580000000001 0.0050737 0.00846906 0.0011456700000000014 0.009276820000000002 0.00652873 -0.01666529 -0.009508049999999997 -0.012776780000000001 -0.012776780000000001 -0.01175209 -0.01680409 0.01575107 0.015416280000000001 0.014755530000000001 -0.01199625 -0.011647239999999996 -0.009393239999999997 0.00652873 0.01077748 0.00874248 -0.012885389999999997 -0.01660143 -0.0120771 -0.012885389999999997 -0.015802289999999997 -0.01660143 -0.012885389999999997 -0.011647239999999996 -0.015802289999999997 -0.03608054 -0.03640699 -0.03695439 -0.0014678999999999977 -0.0033986999999999976 -0.00417729 0.007108400000000001 0.00239841 0.0016563800000000024 -0.010100499999999998 -0.009508049999999997 -0.01666529 0.0021235200000000003 0.0006336099999999997 -0.005134399999999997 6.085000000000118e-05 0.0021235200000000003 -0.005134399999999997 -0.05100326 -0.05190395 -0.05240951 0.009184560000000001 0.012106330000000002 0.007031020000000002 0.00846906 0.011530970000000001 0.011746580000000001 0.013552570000000002 0.012106330000000002 0.009184560000000001 0.011291500000000001 0.009548530000000001 0.00978931 -0.007800040000000001 -0.0120771 -0.01175209 -0.012885389999999997 -0.01020323 -0.011647239999999996 0.007031020000000002 0.0043832900000000015 0.0006336099999999997 0.007031020000000002 0.012106330000000002 0.00978931 -0.009508049999999997 -0.006355739999999999 -0.01175209 -0.012776780000000001 -0.009508049999999997 -0.01175209 -0.006355739999999999 -0.007800040000000001 -0.01175209 -0.00417729 -0.0033986999999999976 -0.0049962099999999975 -0.005351419999999999 -0.012885389999999997 -0.0120771 -0.005351419999999999 -0.01020323 -0.012885389999999997 -0.038757129999999994 -0.03806989 -0.04028365 -0.03737257 -0.03705929 -0.03659141 -0.03737257 -0.03659141 -0.03726313 -0.03676865 -0.0383133 -0.03687966 0.00874248 0.003407900000000002 0.00652873 -0.03731193 -0.0383133 -0.03676865 0.01575107 0.015770390000000002 0.01630396 -0.06336094 -0.06153772999999999 -0.06387538000000001 -0.06600365 -0.06336094 -0.06387538000000001 0.01630396 0.016016970000000002 0.015215430000000002 -0.039731579999999996 -0.03705929 -0.03827489 -0.037278519999999996 -0.03782962 -0.0373456 -0.003535589999999998 0.0011456700000000014 -0.0032188199999999972 0.013552570000000002 0.015770390000000002 0.013908060000000002 -0.03651758 -0.037541689999999996 -0.03640699 -0.042447660000000005 -0.044413 -0.044605589999999994 0.01077748 0.011530970000000001 0.00874248 -0.03687966 -0.03716506 -0.036895859999999996 -0.03687966 -0.038875650000000005 -0.03716506 0.015298470000000002 0.014517190000000001 0.016016970000000002 0.01630396 0.015770390000000002 0.016016970000000002 -0.037896809999999996 -0.036895859999999996 -0.037278519999999996 -0.03806989 -0.03705929 -0.039731579999999996 -0.03731193 -0.038926300000000004 -0.0383133 -0.06182494 -0.06501211000000001 -0.06387538000000001 0.015770390000000002 0.013552570000000002 0.015298470000000002 -0.03806989 -0.03676865 -0.03705929 0.013547540000000002 0.014093350000000001 0.015416280000000001 -0.03709598 -0.03608054 -0.03694593 -0.03731193 -0.03676865 -0.03806989 -0.0032188199999999972 0.0011456700000000014 0.00652873 0.013816300000000002 0.011746580000000001 0.011530970000000001 -0.03716506 -0.038308390000000005 -0.03782962 0.00723381 0.00772925 0.009548530000000001 -0.037278519999999996 -0.03716506 -0.03782962 -0.03640699 -0.03608054 -0.03596542 0.01375661 0.013816300000000002 0.01077748 0.016016970000000002 0.015770390000000002 0.015298470000000002 -0.03726313 -0.03659141 -0.036895859999999996 -0.052693460000000004 -0.053699630000000005 -0.053217339999999995 -0.06251121000000001 -0.058211969999999995 -0.06060975 -0.0015809299999999978 -0.0063581299999999966 0.0007344100000000013 -0.03659141 -0.03687966 -0.036895859999999996 0.01077748 0.013816300000000002 0.011530970000000001 0.011104510000000001 0.015215430000000002 0.014517190000000001 0.013908060000000002 0.01390323 0.011291500000000001 -0.03768195 -0.038926300000000004 -0.03731193 -0.03742542 -0.03731193 -0.03806989 -0.06649047 -0.06443083999999999 -0.06600365 -0.03768195 -0.039371029999999994 -0.038926300000000004 -0.06443083999999999 -0.06336094 -0.06600365 -0.02056989 -0.019882279999999995 -0.023468629999999997 0.01575107 0.013908060000000002 0.015770390000000002 -0.037278519999999996 -0.0373456 -0.037896809999999996 -0.06501211000000001 -0.06520572 -0.06630981999999999 -0.03694593 -0.03608054 -0.03695439 -0.048242520000000004 -0.04908436 -0.049577550000000005 -0.03695439 -0.03768195 -0.03731193 -0.03742542 -0.03695439 -0.03731193 -0.06060975 -0.058211969999999995 -0.058159350000000005 -0.03659141 -0.03705929 -0.03676865 0.00846906 0.007108400000000001 0.00874248 -0.038757129999999994 -0.03742542 -0.03806989 -0.04275143 -0.04146786 -0.03923083 -0.03640699 -0.03751416999999999 -0.03695439 -0.00861965 -0.003535589999999998 -0.0032188199999999972 -0.03751416999999999 -0.03768195 -0.03695439 -0.03751416999999999 -0.039371029999999994 -0.03768195 0.013547540000000002 0.015416280000000001 0.015215430000000002 0.014093350000000001 0.014755530000000001 0.015416280000000001 -0.010100499999999998 -0.01666529 -0.01493796 -0.02834196 -0.027369029999999996 -0.028831799999999998 -0.027369029999999996 -0.027166219999999998 -0.028831799999999998 -0.0436026 -0.04146786 -0.043866880000000004 0.01282802 0.011779730000000002 0.01390323 0.015298470000000002 0.01375661 0.014517190000000001 0.013908060000000002 0.012106330000000002 0.013552570000000002 -0.04028365 -0.039400319999999996 -0.038757129999999994 0.014755530000000001 0.014093350000000001 0.01282802 -0.06358588000000001 -0.06251121000000001 -0.06060975 -0.00037355000000000027 -0.0015809299999999978 0.003783050000000003 -0.0383133 -0.03854182999999999 -0.03687966 -0.03659141 -0.03676865 -0.03687966 -0.04708378 -0.043192409999999994 -0.042738179999999994 -0.03912418 -0.039793760000000004 -0.037541689999999996 -0.04708378 -0.049108160000000005 -0.04591976 -0.042132159999999995 -0.04394021 -0.03976042999999999 -0.051595579999999995 -0.052693460000000004 -0.049108160000000005 -0.029454179999999996 -0.031627619999999995 -0.028831799999999998 -0.039457009999999994 -0.042132159999999995 -0.03976042999999999 -0.04777722 -0.051595579999999995 -0.049108160000000005 -0.03782962 -0.039457009999999994 -0.03699624 -0.039793760000000004 -0.039371029999999994 -0.037541689999999996 -0.039793760000000004 -0.042738179999999994 -0.039371029999999994 -0.03854182999999999 -0.038875650000000005 -0.03687966 -0.038953930000000005 -0.0341297 -0.04069179 -0.04801905 -0.052004310000000005 -0.04750553 -0.0009196099999999978 -0.008674049999999996 -0.010526319999999999 -0.03709937 -0.04281859 -0.03893854 -0.038875650000000005 -0.042216590000000005 -0.039958959999999995 -0.04410365 -0.04722331999999999 -0.04874807999999999 -0.00902294 -0.007597159999999999 -0.0049962099999999975 -0.04750553 -0.05238270999999999 -0.05026927 -0.05387611 -0.05165521 -0.04874807999999999 -0.031627619999999995 -0.031070059999999997 -0.028831799999999998 -0.06032984 -0.06153772999999999 -0.05626416 -0.008359779999999997 -0.009151079999999999 0.0004600699999999999 -0.00417729 -0.007597159999999999 -0.009393239999999997 -0.03709937 -0.03893854 -0.035052849999999997 -0.031070059999999997 -0.031627619999999995 -0.0341297 -0.00902294 -0.010526319999999999 -0.012277919999999998 -0.03711615 -0.032264799999999996 -0.032684529999999996 -0.030369 -0.032264799999999996 -0.029454179999999996 -0.035052849999999997 -0.0341297 -0.031627619999999995 -0.037541689999999996 -0.03802115 -0.03912418 -0.04765257 -0.04722331999999999 -0.045863560000000005 -0.05026927 -0.05393169999999999 -0.053935630000000005 -0.026839669999999996 -0.03147295 -0.02964236 -0.059970409999999995 -0.05165521 -0.05387611 -0.059970409999999995 -0.054039960000000005 -0.05165521 -0.032264799999999996 -0.03711615 -0.03612104 -0.03612104 -0.04073972 -0.03457562 -0.04801905 -0.04750553 -0.04281859 -0.059970409999999995 -0.06182494 -0.05649666999999999 -0.054039960000000005 -0.059970409999999995 -0.05649666999999999 -0.06182494 -0.06032984 -0.05649666999999999 -0.043192409999999994 -0.04154665 -0.039371029999999994 -0.03457562 -0.04073972 -0.03709937 -0.06032984 -0.06387538000000001 -0.06153772999999999 -0.054039960000000005 -0.052004310000000005 -0.04801905 -0.04410365 -0.04874807999999999 -0.04573153 -0.049108160000000005 -0.050429499999999995 -0.04775916 -0.01723354 -0.014519899999999995 -0.018793209999999998 -0.04109603999999999 -0.042780549999999994 -0.03664166 -0.044136 -0.04708378 -0.04591976 -0.03912418 -0.0420703 -0.039793760000000004 -0.03709937 -0.04073972 -0.04281859 -0.03854182999999999 -0.04080809999999999 -0.038875650000000005 -0.04080809999999999 -0.0416052 -0.038875650000000005 -0.0416052 -0.042216590000000005 -0.038875650000000005 -0.0416052 -0.04443845 -0.042216590000000005 -0.04443845 -0.044372589999999996 -0.042216590000000005 0.014755530000000001 0.01390323 0.013908060000000002 -0.042738179999999994 -0.043192409999999994 -0.039371029999999994 -0.058560949999999994 -0.059970409999999995 -0.05387611 -0.05039087 -0.052587180000000004 -0.051595579999999995 -0.05165521 -0.048696689999999994 -0.04573153 -0.039371029999999994 -0.03751416999999999 -0.037541689999999996 -0.025242269999999997 -0.026839669999999996 -0.02964236 -0.052004310000000005 -0.05238270999999999 -0.04750553 -0.04410365 -0.04573153 -0.04109603999999999 -0.05039087 -0.04915869999999999 -0.04644833 -0.04281859 -0.044540630000000005 -0.03893854 -0.05026927 -0.053935630000000005 -0.05026049 -0.03147295 -0.03458244 -0.032684529999999996 -0.04073972 -0.04801905 -0.04281859 -0.04004736999999999 -0.0420703 -0.03912418 -0.04750553 -0.05026927 -0.044540630000000005 -0.043531190000000004 -0.04801905 -0.04073972 -0.048696689999999994 -0.042780549999999994 -0.04573153 -0.03976042999999999 -0.04410365 -0.04032035 -0.03664166 -0.03711615 -0.032684529999999996 -0.02964236 -0.02742017 -0.025242269999999997 -0.03457562 -0.03709937 -0.035052849999999997 -0.042780549999999994 -0.043531190000000004 -0.03711615 -0.04443845 -0.045863560000000005 -0.044372589999999996 -0.052004310000000005 -0.05649666999999999 -0.05626416 -0.02964236 -0.028323049999999995 -0.02742017 -0.032264799999999996 -0.03457562 -0.031010789999999996 -0.04929408 -0.05053688 -0.04722331999999999 -0.03811733999999999 -0.04109603999999999 -0.03664166 -0.008359779999999997 -0.0025970399999999984 -0.005980179999999998 -0.02964236 -0.030369 -0.028323049999999995 -0.05671916 -0.05829897999999999 -0.05393169999999999 -0.04522225999999999 -0.05026049 -0.04756706 -0.03811733999999999 -0.03664166 -0.03548358 -0.03726313 -0.03923083 -0.03737257 -0.048696689999999994 -0.054039960000000005 -0.04801905 -0.048696689999999994 -0.04801905 -0.043531190000000004 -0.04722331999999999 -0.04765257 -0.04929408 -0.044540630000000005 -0.05026927 -0.04522225999999999 -0.04522225999999999 -0.05026927 -0.05026049 -0.03716506 -0.038875650000000005 -0.038308390000000005 -0.04874807999999999 -0.05165521 -0.04573153 -0.044540630000000005 -0.04522225999999999 -0.03893854 0.0006353800000000014 0.0029522100000000003 0.0008930500000000029 -0.02964236 -0.032684529999999996 -0.030369 0.011291500000000001 0.00978931 0.013908060000000002 -0.03458244 -0.03664166 -0.032684529999999996 -0.03976042999999999 -0.04394021 -0.04410365 -0.05412993 -0.053217339999999995 -0.053699630000000005 -0.03711615 -0.043531190000000004 -0.03612104 -0.0420703 -0.042738179999999994 -0.039793760000000004 -0.042780549999999994 -0.048696689999999994 -0.043531190000000004 -0.03664166 -0.042780549999999994 -0.03711615 -0.058560949999999994 -0.06251121000000001 -0.059970409999999995 -0.03612104 -0.043531190000000004 -0.04073972 -0.06501211000000001 -0.059970409999999995 -0.06251121000000001 -0.059970409999999995 -0.06501211000000001 -0.06182494 -0.052004310000000005 -0.05626416 -0.05238270999999999 -0.04708378 -0.044136 -0.043192409999999994 -0.045381529999999996 -0.04915869999999999 -0.04777722 -0.04281859 -0.04750553 -0.044540630000000005 -0.05626416 -0.05671916 -0.05238270999999999 0.0008930500000000029 -0.0033986999999999976 -0.0014678999999999977 -0.03548358 -0.03664166 -0.03458244 -0.03252062 -0.03548358 -0.03458244 -0.010526319999999999 -0.0049962099999999975 -0.0033986999999999976 -0.05238270999999999 -0.05671916 -0.05393169999999999 -0.04573153 -0.042780549999999994 -0.04109603999999999 0.0008930500000000029 -0.0009196099999999978 -0.0033986999999999976 -0.043192409999999994 -0.044136 -0.04154665 -0.0383133 -0.04080809999999999 -0.03854182999999999 -0.04410365 -0.04109603999999999 -0.04032035 -0.04350422 -0.04443845 -0.0416052 -0.04775916 -0.050429499999999995 -0.050405849999999995 -0.049108160000000005 -0.04775916 -0.04591976 -0.04644833 -0.042787700000000005 -0.04313618 -0.032264799999999996 -0.03612104 -0.03457562 -0.04756706 -0.04903387 -0.04069179 -0.03252062 -0.03458244 -0.03147295 -0.04522225999999999 -0.04756706 -0.04069179 -0.03893854 -0.04522225999999999 -0.04069179 -0.04350422 -0.0416052 -0.04080809999999999 -0.04915869999999999 -0.05039087 -0.051595579999999995 -0.04443845 -0.04765257 -0.045863560000000005 -0.03726313 -0.038616740000000004 -0.03923083 -0.04171365 -0.042447660000000005 -0.04028365 -0.0014678999999999977 -0.00417729 0.0006353800000000014 -0.04915869999999999 -0.051595579999999995 -0.04777722 -0.0009196099999999978 -0.010526319999999999 -0.0033986999999999976 -0.0341297 -0.03360331 -0.031070059999999997 -0.038308390000000005 -0.039457009999999994 -0.03782962 -0.010526319999999999 -0.00902294 -0.0049962099999999975 -0.042787700000000005 -0.04644833 -0.0420703 -0.051595579999999995 -0.053699630000000005 -0.052693460000000004 -0.044136 -0.04591976 -0.04298379 -0.01871996 -0.016503709999999998 -0.012857279999999999 -0.053597700000000005 -0.053699630000000005 -0.051595579999999995 -0.012292480000000001 -0.014088179999999999 -0.008359779999999997 -0.05190395 -0.050405849999999995 -0.053217339999999995 -0.050405849999999995 -0.050429499999999995 -0.053217339999999995 -0.048110209999999994 -0.049577550000000005 -0.04908436 -0.05053688 -0.04929408 -0.05100326 -0.028831799999999998 -0.027166219999999998 -0.029454179999999996 -0.050405849999999995 -0.05190395 -0.05100326 -0.02358001 -0.021076289999999998 -0.01723354 0.014517190000000001 0.01375661 0.009276820000000002 -0.05053688 -0.05240951 -0.05237826 -0.0514239 -0.05053688 -0.05237826 -0.005980179999999998 -0.012292480000000001 -0.008359779999999997 -0.010526319999999999 -0.021076289999999998 -0.012277919999999998 -0.03923083 -0.03827489 -0.03737257 -0.03651758 -0.03802115 -0.037541689999999996 -0.0032188199999999972 0.00652873 0.0007344100000000013 -0.049488620000000004 -0.0514239 -0.05198734 -0.04616894999999999 -0.043866880000000004 -0.046723560000000004 -0.049488620000000004 -0.04722331999999999 -0.05053688 -0.05240951 -0.05053688 -0.05100326 -0.0025970399999999984 -0.008359779999999997 -0.0021134599999999976 -0.04164285 -0.041070180000000005 -0.038731140000000004 -0.04164285 -0.038731140000000004 -0.03924952 0.011530970000000001 0.00846906 0.00874248 -0.014269409999999996 -0.0032188199999999972 -0.0064496399999999995 0.013552570000000002 0.014013180000000002 0.015298470000000002 -0.011992749999999996 -0.01493796 -0.01984287 -0.03548358 -0.03252062 -0.0319964 -0.0514239 -0.049488620000000004 -0.05053688 0.015416280000000001 0.01630396 0.015215430000000002 -0.04929408 -0.050405849999999995 -0.05100326 -0.012292480000000001 -0.017818979999999998 -0.014088179999999999 -0.0063581299999999966 -0.018755719999999997 -0.0064496399999999995 -0.012292480000000001 -0.005980179999999998 -0.009070429999999997 -0.06098604999999999 -0.06336094 -0.06443083999999999 -0.053217339999999995 -0.05240951 -0.05190395 0.006314320000000002 0.004108870000000001 0.00772925 -0.05829897999999999 -0.06336094 -0.06098604999999999 -0.03705929 -0.03737257 -0.03827489 -0.05671916 -0.06153772999999999 -0.05829897999999999 -0.03147295 -0.02681526 -0.03252062 -0.03596542 -0.03608054 -0.03709598 -0.06098604999999999 -0.057227679999999996 -0.05829897999999999 -0.03147295 -0.021076289999999998 -0.02681526 -0.041700709999999995 -0.04028365 -0.039731579999999996 -0.0436026 -0.041700709999999995 -0.039731579999999996 -0.03147295 -0.026839669999999996 -0.021076289999999998 -0.010526319999999999 -0.01723354 -0.021076289999999998 -0.05829897999999999 -0.057227679999999996 -0.053935630000000005 -0.038731140000000004 -0.03842889 -0.03656942 -0.03802115 -0.03735924 -0.0405936 -0.042684480000000004 -0.045121669999999996 -0.043543889999999995 -0.04644833 -0.04313618 -0.04900445 -0.043543889999999995 -0.04745548 -0.04900445 -0.043543889999999995 -0.045121669999999996 -0.04745548 -0.052587180000000004 -0.05039087 -0.04900445 -0.04478052999999999 -0.04338263999999999 -0.044605589999999994 -0.04745548 -0.04955096 -0.04900445 -0.04478052999999999 -0.046156510000000005 -0.042684480000000004 -0.04338263999999999 -0.04478052999999999 -0.042684480000000004 -0.042684480000000004 -0.046156510000000005 -0.045121669999999996 -0.05215305 -0.052587180000000004 -0.04900445 -0.04955096 -0.05215305 -0.04900445 -0.045121669999999996 -0.0485026 -0.04745548 -0.04745548 -0.0485026 -0.04955096 -0.046351460000000004 -0.04478052999999999 -0.04605728 -0.05215305 -0.053597700000000005 -0.052587180000000004 -0.051595579999999995 -0.052587180000000004 -0.053597700000000005 -0.04478052999999999 -0.046351460000000004 -0.046156510000000005 -0.046156510000000005 -0.04922655 -0.045121669999999996 -0.045121669999999996 -0.04922655 -0.0485026 -0.04955096 -0.052696719999999996 -0.05215305 -0.05215305 -0.052696719999999996 -0.053597700000000005 -0.052696719999999996 -0.054087729999999994 -0.053597700000000005 -0.046351460000000004 -0.04789616 -0.046156510000000005 -0.0485026 -0.052696719999999996 -0.04955096 -0.046351460000000004 -0.04605728 -0.047303019999999994 -0.05267723 -0.054087729999999994 -0.052696719999999996 -0.0485026 -0.05267723 -0.052696719999999996 -0.048242520000000004 -0.046351460000000004 -0.047303019999999994 -0.04789616 -0.04854845 -0.046156510000000005 -0.046156510000000005 -0.04854845 -0.04922655 -0.04922655 -0.05267723 -0.0485026 -0.047083599999999996 -0.04908436 -0.047303019999999994 -0.05412993 -0.053699630000000005 -0.054087729999999994 -0.05267723 -0.05412993 -0.054087729999999994 -0.046811570000000004 -0.04908436 -0.047083599999999996 -0.04838664 -0.046351460000000004 -0.048242520000000004 -0.04838664 -0.04789616 -0.046351460000000004 -0.04908436 -0.048242520000000004 -0.0473030199999