VARIABLES="X", "Y", "Z", "M"
ZONE T="SINGLE"
NODES=29808
ELEMENTS=9936
DATAPACKING=BLOCK
ZONETYPE=FETRIANGLE
VARLOCATION=([4-4]=CELLCENTERED)
-0.06156194 -0.06469839 -0.06449102000000001 -0.06136750999999999 -0.060911379999999994 -0.062055900000000004 -0.0013037199999999978 -0.0023831799999999986 -0.0008513099999999975 -0.04777722 -0.04708378 -0.042738179999999994 -0.0008513099999999975 -0.006358849999999999 -0.0035960199999999984 -0.03590236 -0.031901 -0.03538127 0.023202320000000002 0.016915930000000003 0.021589820000000003 -0.031010789999999996 -0.031627619999999995 -0.029454179999999996 -0.058736580000000004 -0.059863889999999996 -0.061204619999999994 -0.0436026 -0.044413 -0.041700709999999995 -0.06381255999999999 -0.06461233999999999 -0.06439871 0.08343996000000001 0.08234515 0.08339241 -0.008674049999999996 -0.014519899999999995 -0.010526319999999999 0.016915930000000003 0.016011120000000004 0.021589820000000003 -0.056257430000000004 -0.058736580000000004 -0.058740480000000005 -0.04535972 -0.04775916 -0.04443845 -0.038875650000000005 -0.039958959999999995 -0.038308390000000005 -0.039371029999999994 -0.04154665 -0.038926300000000004 -0.0256872 -0.022871999999999997 -0.02649981 -0.04298379 -0.04591976 -0.04535972 -0.04080809999999999 -0.044136 -0.04298379 -0.044372589999999996 -0.045863560000000005 -0.042132159999999995 -0.04443845 -0.04775916 -0.04765257 -0.0044283199999999995 -0.00804842 -0.0031229299999999995 -0.04591976 -0.04775916 -0.04535972 0.009772920000000001 0.004889360000000002 0.008768660000000001 -0.06798952999999999 -0.06554937999999999 -0.06723261999999999 0.01718369 0.011506130000000002 0.0218926 -0.04596183 -0.045385249999999995 -0.04379618999999999 -0.06671514 -0.06773651 -0.06749923 -0.05933541 -0.06103450999999999 -0.059863889999999996 0.014263510000000002 0.019399060000000003 0.0218926 0.011506130000000002 0.014263510000000002 0.0218926 -0.012416449999999996 -0.012613819999999998 -0.010562669999999996 -0.0023831799999999986 -0.006358849999999999 -0.0008513099999999975 -0.05165521 -0.054039960000000005 -0.048696689999999994 -0.042945359999999995 -0.04587229 -0.042390779999999996 -0.06431897 -0.062405060000000005 -0.062055900000000004 0.01718369 0.0218926 0.02195288 -0.06336094 -0.05829897999999999 -0.06153772999999999 0.02378113 0.0290479 0.0280802 -0.04154665 -0.044136 -0.04080809999999999 -0.054039960000000005 -0.05649666999999999 -0.052004310000000005 -0.06929715 -0.06798952999999999 -0.06828121000000001 0.019399060000000003 0.027392970000000003 0.0218926 0.027392970000000003 0.019399060000000003 0.023202320000000002 -0.04777722 -0.049108160000000005 -0.04708378 0.0015405100000000019 -0.0013037199999999978 0.004889360000000002 -0.05626416 -0.06153772999999999 -0.05671916 0.025968360000000003 0.0218926 0.02857656 -0.0571915 -0.058736580000000004 -0.05662746999999999 -0.042216590000000005 -0.042132159999999995 -0.039958959999999995 -0.0383133 -0.038926300000000004 -0.04080809999999999 -0.039958959999999995 -0.042132159999999995 -0.038308390000000005 -0.06500934 -0.06374617999999999 -0.06243906 0.025968360000000003 0.02857656 0.031511170000000005 0.03634801 0.04023568 0.03546428 -0.04394021 -0.045863560000000005 -0.04722331999999999 -0.05662746999999999 -0.058736580000000004 -0.056257430000000004 0.016011120000000004 0.009772920000000001 0.014133790000000002 -0.04722331999999999 -0.049488620000000004 -0.04874807999999999 0.027491920000000003 0.02075606 0.023446050000000003 -0.06363126999999999 -0.06449548999999999 -0.06389226 -0.04775916 -0.050405849999999995 -0.04765257 -0.06346921999999999 -0.06555792999999999 -0.06559387 0.023446050000000003 0.018413540000000003 0.020398060000000003 -0.02571827 -0.025242269999999997 -0.02742017 -0.042216590000000005 -0.044372589999999996 -0.042132159999999995 -0.06817648000000001 -0.06924354999999999 -0.06864421000000001 -0.055900509999999994 -0.05400379 -0.05645547 -0.05400379 -0.05205666 -0.05645547 -0.05205666 -0.05477898999999999 -0.05645547 -0.04644833 -0.04915869999999999 -0.045381529999999996 -0.05829897999999999 -0.053935630000000005 -0.05393169999999999 -0.025242269999999997 -0.022311209999999998 -0.026839669999999996 -0.029454179999999996 -0.032264799999999996 -0.031010789999999996 -0.06559387 -0.06555792999999999 -0.06726899 -0.045863560000000005 -0.04394021 -0.042132159999999995 -0.055900509999999994 -0.05308147 -0.05400379 -0.05343646 -0.05225608 -0.055944970000000004 -0.031627619999999995 -0.03457562 -0.035052849999999997 -0.04765257 -0.050405849999999995 -0.04929408 -0.0062178799999999985 -0.00617289 -0.0014719799999999977 -0.06655649999999999 -0.06374617999999999 -0.06500934 -0.02783173 -0.03006586 -0.0260255 -0.03892088 -0.045595130000000005 -0.04346642999999999 -0.03147295 -0.032684529999999996 -0.02964236 -0.05071822 -0.05400379 -0.05308147 -0.05071822 -0.05205666 -0.05400379 -0.0509832 -0.05343646 -0.05477898999999999 0.06851477 0.06643888 0.06611812 -0.061180439999999996 -0.061204619999999994 -0.0617764 -0.0006610799999999979 0.0014931500000000021 0.011506130000000002 -0.038926300000000004 -0.04154665 -0.04080809999999999 -0.06461233999999999 -0.06449548999999999 -0.06408625000000001 -0.06929715 -0.06828121000000001 -0.06938042 -0.042132159999999995 -0.039457009999999994 -0.038308390000000005 0.03273898 0.027392970000000003 0.030910570000000002 -0.05205666 -0.0509832 -0.05477898999999999 -0.04903387 -0.05225608 -0.05343646 -0.0509832 -0.04903387 -0.05343646 -0.02751364 -0.0252905 -0.025887309999999997 0.014133790000000002 0.009772920000000001 0.008768660000000001 -0.045381529999999996 -0.04777722 -0.042738179999999994 -0.031010789999999996 -0.03457562 -0.031627619999999995 0.03342109 0.02857656 0.03273898 0.023446050000000003 0.02075606 0.018413540000000003 -0.05156583 -0.048880089999999994 -0.05308147 -0.05071822 -0.047665889999999995 -0.05205666 -0.05205666 -0.04947183 -0.0509832 0.01017575 0.011901010000000002 0.015643050000000002 -0.01493796 -0.011992749999999996 -0.010100499999999998 -0.058740480000000005 -0.061204619999999994 -0.061180439999999996 -0.06798952999999999 -0.06723261999999999 -0.06828121000000001 -0.06655649999999999 -0.06500934 -0.06733191999999999 -0.06339924 -0.06156194 -0.06179473 -0.01333645 -0.013623579999999996 -0.010262559999999997 -0.00725787 -0.011756309999999999 -0.00804842 -0.05156583 -0.04800115 -0.048880089999999994 -0.05205666 -0.047665889999999995 -0.04947183 -0.05026049 -0.05225608 -0.04756706 -0.06204141 -0.06455969 -0.06500934 -0.06309145 -0.06439871 -0.06408625000000001 -0.03608427 -0.040156149999999995 -0.03653038 -0.048880089999999994 -0.04583138999999999 -0.05071822 -0.04583138999999999 -0.047665889999999995 -0.05071822 -0.04947183 -0.047646959999999995 -0.0509832 -0.04903387 -0.04756706 -0.05225608 -0.04989822 -0.04725392 -0.04800115 -0.03656942 -0.03651758 -0.03596542 0.021589820000000003 0.016011120000000004 0.02075606 -0.062265179999999996 -0.06408625000000001 -0.06363126999999999 -0.005980179999999998 0.0015441600000000028 -0.003535589999999998 -0.0509832 -0.047646959999999995 -0.04903387 0.06801509 0.06625883 0.0682182 0.07531813000000001 0.07785416 0.0764338 -0.009070429999999997 -0.005980179999999998 -0.003535589999999998 0.016011120000000004 0.014133790000000002 0.02075606 -0.040696939999999994 -0.038616740000000004 -0.037896809999999996 -0.04800115 -0.04583138999999999 -0.048880089999999994 0.028766720000000003 0.03165325 0.02580905 0.07094182 0.07531813000000001 0.0764338 0.0682182 0.06575136000000001 0.06787905 0.07531813000000001 0.07954987 0.07785416 -0.02819879 -0.02536476 -0.02553938 0.014263510000000002 0.008726910000000001 0.016915930000000003 0.023202320000000002 0.021589820000000003 0.028623170000000003 -0.04436850999999999 -0.04545693 -0.04844016 -0.0451128 -0.04800115 -0.04725392 -0.0451128 -0.04583138999999999 -0.04800115 0.02637731 0.02706568 0.0286285 -0.047646959999999995 -0.04370076999999999 -0.04903387 0.07457568 0.06771912 0.07169328 0.07954987 0.08230646999999999 0.08242175 0.06996022 0.07051119 0.07125271999999999 -0.03506777 -0.03035277 -0.03612567 -0.061396440000000004 -0.05931416 -0.05848970999999999 -0.06136750999999999 -0.06346921999999999 -0.060911379999999994 -0.050115009999999995 -0.05216839 -0.04953036 -0.042231979999999995 -0.04545693 -0.04436850999999999 -0.04545693 -0.04269103999999999 -0.047141949999999995 -0.04269103999999999 -0.044382410000000004 -0.047141949999999995 0.018378940000000003 0.02375609 0.019377830000000002 0.0344076 0.03841438 0.03451046 0.03145984 0.02766452 0.02825145 -0.04314512 -0.04583138999999999 -0.04336934 0.07183447000000001 0.07125271999999999 0.07128088 -0.06682203 -0.06533691 -0.06537704 -0.06156194 -0.06358588000000001 -0.06060975 0.02421836 0.02195288 0.025968360000000003 0.027491920000000003 0.023446050000000003 0.029315590000000002 -0.039984570000000004 -0.04269103999999999 -0.04545693 -0.039731579999999996 -0.04028365 -0.03806989 0.025376990000000002 0.02436636 0.017998740000000003 0.03234297 0.0310412 0.02848306 -0.024747449999999997 -0.02302362 -0.023468629999999997 -0.06923771000000001 -0.06929715 -0.06938042 -0.02489641 -0.019341829999999997 -0.018755719999999997 0.06971785 0.07013381 0.06787905 -0.06924354999999999 -0.06923771000000001 -0.06938042 0.07013381 0.06971785 0.07091854 -0.0571915 -0.059863889999999996 -0.058736580000000004 0.004889360000000002 -0.0013037199999999978 -0.0008513099999999975 -0.0006610799999999979 0.011506130000000002 0.010830300000000001 -0.0617764 -0.06328419999999998 -0.061180439999999996 0.031511170000000005 0.03342109 0.03731936 -0.042231979999999995 -0.039984570000000004 -0.04545693 0.010069820000000002 0.006840100000000002 0.00418572 0.03307238 0.0286285 0.02706568 0.03422319 0.030986230000000003 0.025376990000000002 0.030986230000000003 0.02436636 0.025376990000000002 0.03422319 0.025376990000000002 0.02993049 0.0857788 0.08483724000000001 0.08507869 0.07954987 0.08242175 0.0802579 -0.039400319999999996 -0.03924952 -0.03694593 0.07785416 0.0802579 0.0764338 0.027392970000000003 0.023202320000000002 0.030910570000000002 -0.04328239999999999 -0.04290277 -0.040592380000000004 -0.04436850999999999 -0.04328239999999999 -0.042231979999999995 0.0418328 0.045657260000000005 0.04000497 0.028507820000000003 0.0344076 0.02979899 0.03281527 0.030198170000000003 0.0286285 -0.04370076999999999 -0.04267647 -0.04069179 0.06920381 0.06963114000000001 0.06996022 0.06710690999999999 0.06920381 0.06996022 0.0014931500000000021 0.0015405100000000019 0.008726910000000001 0.014263510000000002 0.011506130000000002 0.0014931500000000021 -0.0013037199999999978 -0.005771289999999998 -0.0023831799999999986 0.0218926 0.025968360000000003 0.02195288 0.03867761 0.04432044 0.044262750000000003 -0.03893981 -0.03999215 -0.045491189999999994 -0.044937250000000005 -0.03999215 -0.04290277 -0.04290277 -0.03999215 -0.040592380000000004 -0.03902805 -0.04328239999999999 -0.040592380000000004 -0.03902805 -0.042231979999999995 -0.04328239999999999 -0.03902805 -0.039984570000000004 -0.042231979999999995 0.02979899 0.03451046 0.0290479 0.0344076 0.03451046 0.02979899 0.06826435 0.06996022 0.07062 0.02455976 0.024145200000000002 0.02069174 0.03465092 0.03014504 0.0321936 0.03307238 0.03281527 0.0286285 0.02919344 0.03269625 0.03056812 6.085000000000118e-05 -0.006582109999999995 -0.005351419999999999 -0.005771289999999998 -0.006358849999999999 -0.0023831799999999986 0.02455976 0.02037527 0.02069091 0.03145984 0.02825145 0.030198170000000003 0.0006336099999999997 -0.005071609999999997 -0.005134399999999997 -0.025887309999999997 -0.026458549999999997 -0.029463659999999996 -0.0202255 -0.021548489999999997 -0.02276565 -0.06408625000000001 -0.06449548999999999 -0.06363126999999999 -0.0587022 -0.0542375 -0.057471600000000005 -0.03893981 -0.03743324 -0.03999215 -0.03999215 -0.03761511 -0.040592380000000004 -0.03405876 -0.039984570000000004 -0.03902805 0.06831555 0.06878536 0.07273575 0.00559113 0.010344050000000002 0.011104510000000001 0.02350145 0.02455976 0.02069091 -0.03924952 -0.03709598 -0.03694593 0.05902392 0.05837391 0.06255296 -0.03511714 -0.03902805 -0.040592380000000004 -0.03761511 -0.03511714 -0.040592380000000004 -0.03565248 -0.039984570000000004 -0.03405876 -0.03565248 -0.0387824 -0.039984570000000004 0.06349726 0.06299278 0.06051539 0.03307238 0.02706568 0.030986230000000003 -0.031215139999999995 -0.02804335 -0.02819879 -0.06554937999999999 -0.06448084000000001 -0.06579545 -0.06723261999999999 -0.06554937999999999 -0.06524169999999999 -0.0008513099999999975 -0.0035960199999999984 0.004457450000000002 0.05045695 0.05400777 0.04719292 -0.03712611 -0.03452073 -0.03964419 -0.03392216 -0.034867169999999996 -0.03893981 -0.034867169999999996 -0.03743324 -0.03893981 -0.03743324 -0.0344986 -0.03999215 -0.03999215 -0.0344986 -0.03761511 -0.0344986 -0.03399738 -0.03761511 -0.03511714 -0.03405876 -0.03902805 0.0290479 0.03451046 0.0280802 0.03471632 0.03014504 0.03465092 0.07062 0.06996022 0.07125271999999999 -0.032981739999999996 -0.0387824 -0.03565248 0.028507820000000003 0.032640590000000004 0.0344076 0.004889360000000002 -0.0008513099999999975 0.008768660000000001 -0.043543889999999995 -0.041070180000000005 -0.042684480000000004 -0.03286195 -0.03743324 -0.034867169999999996 -0.03286195 -0.0344986 -0.03743324 -0.03761511 -0.03399738 -0.03511714 -0.03511714 -0.031623729999999996 -0.03405876 -0.0387824 -0.032981739999999996 -0.034195949999999996 0.02637731 0.024757360000000003 0.02706568 0.028507820000000003 0.02375609 0.02115498 -0.049852749999999994 -0.049577550000000005 -0.048110209999999994 0.06731296 0.0656359 0.0636863 0.03471632 0.02925159 0.03014504 -0.04076664 -0.04347063 -0.04163487999999999 -0.03286195 -0.031931049999999996 -0.0344986 0.03562971 0.030986230000000003 0.03422319 -0.02154958 -0.0227145 -0.019489439999999997 -0.04394021 -0.04722331999999999 -0.04410365 -0.005771289999999998 -0.006951659999999998 -0.006358849999999999 -0.029088120000000002 -0.03737434 -0.02575118 -0.03399998 -0.03011138 -0.03392216 -0.03399738 -0.030623730000000002 -0.03511714 -0.03030898 -0.03565248 -0.03405876 -0.03030898 -0.032981739999999996 -0.03565248 0.03029296 0.03269625 0.02919344 0.02925159 0.030284790000000002 0.02617601 -0.0373456 -0.03699624 -0.038056639999999996 0.03697835 0.0418328 0.04000497 0.02231562 0.024757360000000003 0.02069091 0.0280802 0.03014504 0.02740946 -0.04604821 -0.044605589999999994 -0.044413 -0.041916260000000004 -0.03892088 -0.03689763 -0.03392216 -0.030238339999999995 -0.034867169999999996 -0.034867169999999996 -0.030238339999999995 -0.03286195 -0.030623730000000002 -0.031623729999999996 -0.03511714 -0.02999689 -0.032981739999999996 -0.03030898 0.024145200000000002 0.02766452 0.02069174 0.02489585 0.02294215 0.0190594 0.08559493 0.08572897 0.08509357000000001 0.024757360000000003 0.02350145 0.02069091 -0.027802059999999996 -0.031901 -0.032180549999999995 -0.011452070000000002 -0.00577018 -0.006358849999999999 -0.040156149999999995 -0.03608427 -0.04005975 -0.0408107 -0.04321455999999999 -0.040696939999999994 -0.03399998 -0.02987695 -0.03011138 -0.03011138 -0.029000399999999996 -0.03392216 -0.03392216 -0.029000399999999996 -0.030238339999999995 -0.030238339999999995 -0.028616700000000002 -0.03286195 -0.03286195 -0.028616700000000002 -0.031931049999999996 -0.031931049999999996 -0.030623730000000002 -0.0344986 -0.030623730000000002 -0.03399738 -0.0344986 -0.031623729999999996 -0.02999421 -0.03405876 -0.03405876 -0.02999421 -0.03030898 -0.032981739999999996 -0.029201369999999997 -0.034195949999999996 0.02455976 0.02825145 0.024145200000000002 0.07063688 0.06731296 0.06577548 0.04644166 0.04563929 0.04197345 -0.027802059999999996 -0.027722449999999996 -0.031901 0.06771912 0.062249610000000004 0.06060601 -0.03538127 -0.031901 -0.03017413 -0.034710529999999996 -0.04076664 -0.03737434 -0.028121319999999998 -0.029000399999999996 -0.03011138 -0.027935639999999998 -0.030623730000000002 -0.031931049999999996 -0.030623730000000002 -0.027935639999999998 -0.031623729999999996 0.01719632 0.02231562 0.02069091 0.038242990000000004 0.04197345 0.0384871 0.0384871 0.0418328 0.03697835 0.07118356 0.07108657 0.06731296 0.04592518 0.04644166 0.04286943 0.07108657 0.06791579 0.0680231 0.07108657 0.07071923 0.06791579 0.07798796 0.08190797999999999 0.08173057 0.04531915 0.045657260000000005 0.0418328 -0.01591724 -0.012420219999999996 -0.017150479999999996 -0.02276565 -0.025980409999999995 -0.02265656 0.01646917 0.012380370000000002 0.013012410000000002 -0.00395094 -0.00617289 -0.0047487499999999995 -0.029000399999999996 -0.025027019999999997 -0.030238339999999995 -0.025027019999999997 -0.028616700000000002 -0.030238339999999995 -0.027935639999999998 -0.031931049999999996 -0.028616700000000002 -0.027935639999999998 -0.02690103 -0.031623729999999996 -0.031623729999999996 -0.02690103 -0.02999421 -0.02690103 -0.026996349999999995 -0.02999421 -0.026996349999999995 -0.03030898 -0.02999421 -0.02999689 -0.025749389999999997 -0.032981739999999996 -0.025749389999999997 -0.024797429999999995 -0.029201369999999997 -0.032981739999999996 -0.025749389999999997 -0.029201369999999997 0.06349726 0.06831555 0.06299278 0.01925002 0.02488711 0.019997550000000003 0.045131290000000004 0.04465917 0.04013719 0.01719632 0.02436636 0.02231562 0.04286943 0.04644166 0.04197345 0.06421874 0.06217654 0.05902392 -0.03011138 -0.025745739999999996 -0.028121319999999998 -0.03030898 -0.026495699999999997 -0.02999689 -0.026495699999999997 -0.025749389999999997 -0.02999689 0.03465092 0.0384871 0.03697835 0.02919344 0.03056812 0.02773814 0.04000497 0.03394037 0.03471632 0.028507820000000003 0.02979899 0.02375609 -0.02765555 -0.024186639999999995 -0.02475442 -0.025745739999999996 -0.025027019999999997 -0.028121319999999998 -0.025027019999999997 -0.029000399999999996 -0.028121319999999998 -0.024000839999999996 -0.028616700000000002 -0.025027019999999997 -0.025372229999999996 -0.027935639999999998 -0.028616700000000002 -0.023809030000000002 -0.02690103 -0.027935639999999998 -0.026495699999999997 -0.03030898 -0.026996349999999995 0.04000497 0.04013719 0.03798133 0.0802579 0.08242175 0.08190797999999999 0.02375609 0.02979899 0.02487754 0.02617601 0.028766720000000003 0.0228548 -0.036895859999999996 -0.03716506 -0.037278519999999996 -0.024960339999999998 -0.024186639999999995 -0.027722449999999996 0.0841199 0.08509357000000001 0.08339241 -0.04275143 -0.043866880000000004 -0.04146786 -0.024000839999999996 -0.025372229999999996 -0.028616700000000002 -0.027935639999999998 -0.025372229999999996 -0.023809030000000002 -0.026495699999999997 -0.02418733 -0.025749389999999997 0.0228548 0.028766720000000003 0.02580905 0.06577548 0.0636863 0.06051539 0.06299278 0.06577548 0.06051539 0.07166116 0.07063688 0.06831555 0.07273575 0.07166116 0.06831555 0.07063688 0.07118356 0.06731296 -0.05238270999999999 -0.05393169999999999 -0.05026927 0.0218926 0.027392970000000003 0.02857656 -0.028993039999999998 -0.02489641 -0.02527144 -0.047539729999999995 -0.04701602999999999 -0.04649812999999999 -0.02690103 -0.02361799 -0.026996349999999995 -0.02361799 -0.02259043 -0.026996349999999995 -0.02259043 -0.02418733 -0.026495699999999997 -0.026996349999999995 -0.02259043 -0.026495699999999997 0.02436636 0.030986230000000003 0.02706568 0.05983844 0.06349726 0.057434 0.019377830000000002 0.02487754 0.02378113 0.019997550000000003 0.02200647 0.01862654 0.03697835 0.03471632 0.03465092 0.02145611 0.018482580000000002 0.010018830000000001 -0.02237894 -0.02475442 -0.024186639999999995 -0.02168618 -0.025399319999999996 -0.02475442 0.031511170000000005 0.02857656 0.03342109 -0.022401819999999996 -0.025745739999999996 -0.02449594 -0.022401819999999996 -0.025027019999999997 -0.025745739999999996 -0.024000839999999996 -0.023809030000000002 -0.025372229999999996 -0.02361799 -0.02690103 -0.023809030000000002 -0.022496910000000002 -0.025749389999999997 -0.02418733 -0.020966739999999998 -0.024797429999999995 -0.025749389999999997 -0.038056639999999996 -0.04117811999999999 -0.0387554 0.02580905 0.03165325 0.02848306 -0.02237894 -0.01907175 -0.02475442 -0.01907175 -0.02168618 -0.02475442 0.019399060000000003 0.016915930000000003 0.023202320000000002 -0.02037646 -0.025027019999999997 -0.022401819999999996 -0.020681079999999998 -0.024000839999999996 -0.025027019999999997 -0.01951455 -0.023809030000000002 -0.020411559999999995 -0.01951455 -0.02361799 -0.023809030000000002 -0.06649047 -0.06585014 -0.0667576 0.03562971 0.03410072 0.030986230000000003 -0.01871996 -0.026839669999999996 -0.022311209999999998 -0.024960339999999998 -0.019590379999999998 -0.024186639999999995 0.02075606 0.014133790000000002 0.018413540000000003 -0.02037646 -0.020681079999999998 -0.025027019999999997 -0.020681079999999998 -0.01943413 -0.024000839999999996 -0.024000839999999996 -0.01943413 -0.023809030000000002 -0.01943413 -0.020411559999999995 -0.023809030000000002 -0.02361799 -0.01951455 -0.02259043 -0.02259043 -0.022496910000000002 -0.02418733 -0.024797429999999995 -0.020851559999999998 -0.024020069999999998 0.01390323 0.014755530000000001 0.01282802 0.02502682 0.02925159 0.02617601 0.02487754 0.02979899 0.0290479 -0.044413 -0.042447660000000005 -0.04171365 0.02487754 0.0290479 0.02378113 -0.025242269999999997 -0.021653529999999997 -0.022311209999999998 -0.06520572 -0.06251121000000001 -0.06358588000000001 -0.019590379999999998 -0.018686469999999997 -0.02237894 -0.024186639999999995 -0.019590379999999998 -0.02237894 -0.018686469999999997 -0.01907175 -0.02237894 -0.04350422 -0.04535972 -0.04443845 0.05886449 0.05573056 0.058748350000000005 -0.01998945 -0.020055619999999996 -0.022401819999999996 -0.020055619999999996 -0.02037646 -0.022401819999999996 -0.01951455 -0.01899088 -0.02259043 -0.01924324 -0.022496910000000002 -0.02259043 -0.01924324 -0.020966739999999998 -0.022496910000000002 -0.022496910000000002 -0.020966739999999998 -0.025749389999999997 -0.017914399999999997 -0.020851559999999998 -0.024797429999999995 0.005181080000000001 0.011104510000000001 0.009276820000000002 -0.0064496399999999995 -0.0032188199999999972 0.0007344100000000013 -0.02030134 -0.01872385 -0.021653529999999997 0.04000497 0.045131290000000004 0.04013719 -0.06374617999999999 -0.06179473 -0.06243906 -0.01998945 -0.017740229999999996 -0.020055619999999996 -0.01899088 -0.01924324 -0.02259043 -0.020966739999999998 -0.01649118 -0.024797429999999995 -0.01649118 -0.015342099999999997 -0.024797429999999995 -0.015342099999999997 -0.017914399999999997 -0.024797429999999995 -0.024422609999999997 -0.023468629999999997 -0.026108269999999996 0.07798796 0.07780185 0.07169328 0.07063688 0.07351001 0.07118356 0.024145200000000002 0.02825145 0.02766452 -0.06585014 -0.06520572 -0.06358588000000001 0.03273898 0.02857656 0.027392970000000003 0.030910570000000002 0.023202320000000002 0.028623170000000003 -0.02154958 -0.01697932 -0.01998945 -0.01697932 -0.017740229999999996 -0.01998945 -0.017740229999999996 -0.016996119999999997 -0.020055619999999996 -0.016996119999999997 -0.02037646 -0.020055619999999996 -0.01924324 -0.01732454 -0.020966739999999998 -0.020966739999999998 -0.01732454 -0.01649118 -0.040696939999999994 -0.04275143 -0.03923083 0.03195449 0.03029296 0.025253690000000002 -0.01872385 -0.016503709999999998 -0.022311209999999998 -0.021653529999999997 -0.01872385 -0.022311209999999998 -0.016503709999999998 -0.01871996 -0.022311209999999998 -0.025887309999999997 -0.0252905 -0.02516872 -0.016879109999999996 -0.01697932 -0.019489439999999997 -0.017056389999999998 -0.02037646 -0.016996119999999997 -0.017056389999999998 -0.020681079999999998 -0.02037646 -0.017056389999999998 -0.01943413 -0.020681079999999998 -0.01943413 -0.017056389999999998 -0.020411559999999995 -0.01899088 -0.016460829999999996 -0.01924324 -0.01924324 -0.016460829999999996 -0.01732454 -0.06749923 -0.06773651 -0.06728086 -0.039400319999999996 -0.03694593 -0.03742542 0.02405036 0.02925159 0.02502682 0.03014504 0.02405036 0.02740946 0.01925002 0.025253690000000002 0.02488711 -0.019590379999999998 -0.016244879999999996 -0.018686469999999997 -0.013979899999999996 -0.014185589999999998 -0.016879109999999996 -0.016879109999999996 -0.014185589999999998 -0.01697932 -0.01697932 -0.01451765 -0.017740229999999996 -0.017056389999999998 -0.016460829999999996 -0.01951455 -0.020411559999999995 -0.017056389999999998 -0.01951455 -0.01951455 -0.016460829999999996 -0.01899088 -0.03742542 -0.03694593 -0.03695439 -0.0378326 -0.03538127 -0.034414349999999996 0.021101850000000002 0.015606380000000001 0.017195310000000002 0.04000497 0.03798133 0.03394037 -0.016244879999999996 -0.013933750000000002 -0.018686469999999997 -0.018686469999999997 -0.013933750000000002 -0.01907175 -0.01314411 -0.016879109999999996 -0.01907175 -0.014185589999999998 -0.013340899999999996 -0.01697932 -0.016996119999999997 -0.01435794 -0.017056389999999998 -0.01435794 -0.014430319999999996 -0.017056389999999998 -0.014430319999999996 -0.016460829999999996 -0.017056389999999998 -0.016460829999999996 -0.014738250000000001 -0.01732454 -0.02366364 -0.024422609999999997 -0.02343435 0.06349726 0.06051539 0.057434 0.03014504 0.02925159 0.02405036 0.016016970000000002 0.014517190000000001 0.015215430000000002 -0.011992749999999996 -0.0063581299999999966 -0.004460159999999998 -0.013933750000000002 -0.01314411 -0.01907175 -0.01697932 -0.011658410000000001 -0.01451765 -0.01451765 -0.016996119999999997 -0.017740229999999996 -0.01451765 -0.01435794 -0.016996119999999997 -0.011298869999999996 -0.016460829999999996 -0.014430319999999996 -0.011298869999999996 -0.014738250000000001 -0.016460829999999996 -0.014738250000000001 -0.013978949999999997 -0.01732454 -0.013978949999999997 -0.010453699999999996 -0.01732454 -0.01732454 -0.010453699999999996 -0.01649118 -0.01649118 -0.013050199999999998 -0.015342099999999997 -0.01130933 -0.015652199999999998 -0.017914399999999997 -0.06032984 -0.06182494 -0.06387538000000001 0.019997550000000003 0.02488711 0.02200647 -0.015802289999999997 -0.012857279999999999 -0.016503709999999998 -0.012277919999999998 -0.01871996 -0.012857279999999999 0.02180411 0.02503092 0.018570760000000002 -0.06461233999999999 -0.06408625000000001 -0.06439871 -0.01417968 -0.013933750000000002 -0.016244879999999996 -0.01314411 -0.013979899999999996 -0.016879109999999996 -0.013340899999999996 -0.011658410000000001 -0.01697932 0.08455801 0.0857788 0.08453163999999999 -0.015802289999999997 -0.01199625 -0.012857279999999999 -0.014185589999999998 -0.010218329999999998 -0.013340899999999996 -0.01451765 -0.011505460000000002 -0.01435794 -0.011505460000000002 -0.01174488 -0.01435794 -0.01435794 -0.01174488 -0.014430319999999996 -0.01174488 -0.011744909999999997 -0.014430319999999996 -0.011744909999999997 -0.010642239999999997 -0.014430319999999996 -0.010642239999999997 -0.011298869999999996 -0.014430319999999996 -0.010931490000000002 -0.014738250000000001 -0.011298869999999996 -0.010931490000000002 -0.01122563 -0.014738250000000001 -0.01122563 -0.013978949999999997 -0.014738250000000001 -0.01122563 -0.010453699999999996 -0.013978949999999997 -0.010453699999999996 -0.013050199999999998 -0.01649118 0.02488711 0.02502185 0.02200647 0.06787905 0.06641401 0.06854774 0.04719292 0.04496812 0.04541482 -0.06339924 -0.06179473 -0.06374617999999999 -0.01115128 -0.009303189999999996 -0.01314411 -0.009385779999999996 -0.013979899999999996 -0.01314411 -0.009448659999999998 -0.014185589999999998 -0.013979899999999996 -0.009448659999999998 -0.010218329999999998 -0.014185589999999998 -0.011505460000000002 -0.01451765 -0.011658410000000001 -0.00806416 -0.011505460000000002 -0.011658410000000001 -0.007161239999999999 -0.010453699999999996 -0.01122563 -0.01130933 -0.015342099999999997 -0.013050199999999998 0.024757360000000003 0.02455976 0.02350145 0.03480203 0.03798133 0.0333873 0.02502185 0.02175208 0.02200647 -0.011647239999999996 -0.01199625 -0.015802289999999997 -0.01314411 -0.013933750000000002 -0.01115128 -0.009303189999999996 -0.009385779999999996 -0.01314411 -0.010218329999999998 -0.011658410000000001 -0.013340899999999996 -0.01002264 -0.01174488 -0.011505460000000002 -0.01174488 -0.008058459999999996 -0.011744909999999997 -0.011744909999999997 -0.008238910000000002 -0.010642239999999997 -0.008582069999999997 -0.01122563 -0.010931490000000002 -0.013050199999999998 -0.010453699999999996 -0.01130933 0.01862654 0.02200647 0.02175208 0.03410072 0.03307238 0.030986230000000003 -0.01199625 -0.009393239999999997 -0.012277919999999998 -0.012857279999999999 -0.01199625 -0.012277919999999998 -0.048880089999999994 -0.05071822 -0.05308147 -0.009393239999999997 -0.005071609999999997 -0.00417729 -0.028323049999999995 -0.030369 -0.029454179999999996 -0.009385779999999996 -0.009448659999999998 -0.013979899999999996 -0.009448659999999998 -0.007689879999999996 -0.010218329999999998 -0.008244339999999996 -0.011505460000000002 -0.00806416 -0.008244339999999996 -0.01002264 -0.011505460000000002 -0.01002264 -0.008058459999999996 -0.01174488 -0.008058459999999996 -0.008238910000000002 -0.011744909999999997 0.01613084 0.02378113 0.019137730000000002 0.038242990000000004 0.0384871 0.03465092 -0.008244339999999996 -0.008058459999999996 -0.01002264 -0.008238910000000002 -0.006834989999999999 -0.010642239999999997 -0.008582069999999997 -0.007161239999999999 -0.01122563 -0.00577018 -0.01130933 -0.010453699999999996 0.0310412 0.02503092 0.02848306 0.0280802 0.0321936 0.03014504 0.018482580000000002 0.025376990000000002 0.017998740000000003 0.0228548 0.01755579 0.017448030000000003 -0.044413 -0.04171365 -0.041700709999999995 0.03451046 0.038242990000000004 0.0321936 -0.058736580000000004 -0.061204619999999994 -0.058740480000000005 0.028623170000000003 0.021589820000000003 0.027491920000000003 0.021589820000000003 0.02075606 0.027491920000000003 -0.009385779999999996 -0.009303189999999996 -0.005614839999999999 -0.005272489999999998 -0.009448659999999998 -0.009385779999999996 -0.007689879999999996 -0.00806416 -0.010218329999999998 -0.00806416 -0.011658410000000001 -0.010218329999999998 -0.006834989999999999 -0.004241689999999999 -0.01064223