VARIABLES="X", "Y", "Z", "M"
ZONE T="SINGLE"
NODES=2160
ELEMENTS=720
DATAPACKING=BLOCK
ZONETYPE=FETRIANGLE
VARLOCATION=([4-4]=CELLCENTERED)
0.002734 0.003222 0.003206 0.002734 0.003206 0.002717 0.003222 0.003714 0.003699 0.003222 0.003699 0.003206 0.003714 0.00421 0.004196 0.003714 0.004196 0.003699 0.00421 0.00471 0.004698 0.00421 0.004698 0.004196 0.00471 0.005214 0.005202 0.00471 0.005202 0.004698 0.005214 0.005721 0.00571 0.005214 0.00571 0.005202 0.005721 0.00623 0.00622 0.005721 0.00622 0.00571 0.00623 0.006741 0.006732 0.00623 0.006732 0.00622 0.006741 0.007254 0.007246 0.006741 0.007246 0.006732 0.007254 0.007768 0.00776 0.007254 0.00776 0.007246 0.007768 0.008281 0.008274 0.007768 0.008274 0.00776 0.008281 0.008794 0.008788 0.008281 0.008788 0.008274 0.008794 0.009306 0.0093 0.008794 0.0093 0.008788 0.009306 0.009817 0.009812 0.009306 0.009812 0.0093 0.009817 0.010325 0.01032 0.009817 0.01032 0.009812 0.010325 0.01083 0.010826 0.010325 0.010826 0.01032 0.01083 0.011331 0.011327 0.01083 0.011327 0.010826 0.011331 0.011827 0.011824 0.011331 0.011824 0.011327 0.011827 0.012317 0.012315 0.011827 0.012315 0.011824 0.012317 0.012801 0.012799 0.012317 0.012799 0.012315 0.012801 0.013267 0.013265 0.012801 0.013265 0.012799 0.013267 0.013724 0.013722 0.013267 0.013722 0.013265 0.013724 0.014172 0.01417 0.013724 0.01417 0.013722 0.014172 0.014595 0.014594 0.014172 0.014594 0.01417 0.014595 0.014993 0.014992 0.014595 0.014992 0.014594 0.014993 0.01537 0.015369 0.014993 0.015369 0.014992 0.01537 0.015734 0.015733 0.01537 0.015733 0.015369 0.015734 0.016087 0.016087 0.015734 0.016087 0.015733 0.016087 0.016423 0.016422 0.016087 0.016422 0.016087 0.016423 0.016734 0.016733 0.016423 0.016733 0.016422 0.016734 0.017021 0.017021 0.016734 0.017021 0.016733 0.017021 0.017294 0.017293 0.017021 0.017293 0.017021 0.017294 0.017546 0.017545 0.017294 0.017545 0.017293 0.017546 0.017781 0.017781 0.017546 0.017781 0.017545 0.017781 0.017997 0.017997 0.017781 0.017997 0.017781 0.017997 0.018189 0.018189 0.017997 0.018189 0.017997 0.018189 0.018362 0.018362 0.018189 0.018362 0.018189 0.018362 0.018516 0.018516 0.018362 0.018516 0.018362 0.018516 0.018649 0.018649 0.018516 0.018649 0.018516 0.018649 0.01876 0.01876 0.018649 0.01876 0.018649 0.01876 0.018848 0.018848 0.01876 0.018848 0.01876 0.018848 0.018915 0.018915 0.018848 0.018915 0.018848 0.018915 0.018961 0.018961 0.018915 0.018961 0.018915 0.018961 0.018988 0.018988 0.018961 0.018988 0.018961 0.018988 0.018993 0.018993 0.018988 0.018993 0.018988 0.018993 0.018977 0.018977 0.018993 0.018977 0.018993 0.018977 0.01894 0.018941 0.018977 0.018941 0.018977 0.01894 0.018881 0.018881 0.01894 0.018881 0.018941 0.018881 0.0188 0.018801 0.018881 0.018801 0.018881 0.0188 0.018699 0.018699 0.0188 0.018699 0.018801 0.018699 0.018577 0.018577 0.018699 0.018577 0.018699 0.018577 0.018437 0.018437 0.018577 0.018437 0.018577 0.018437 0.018278 0.018278 0.018437 0.018278 0.018437 0.018278 0.018095 0.018095 0.018278 0.018095 0.018278 0.018095 0.01789 0.01789 0.018095 0.01789 0.018095 0.01789 0.017663 0.017664 0.01789 0.017664 0.01789 0.017663 0.017418 0.017418 0.017663 0.017418 0.017664 0.017418 0.017154 0.017154 0.017418 0.017154 0.017418 0.017154 0.016865 0.016866 0.017154 0.016866 0.017154 0.016865 0.016561 0.016562 0.016865 0.016562 0.016866 0.016561 0.016242 0.016243 0.016561 0.016243 0.016562 0.016242 0.015899 0.015899 0.016242 0.015899 0.016243 0.015899 0.015538 0.015539 0.015899 0.015539 0.015899 0.015538 0.015153 0.015154 0.015538 0.015154 0.015539 0.015153 0.014752 0.014754 0.015153 0.014754 0.015154 0.014752 0.014338 0.01434 0.014752 0.01434 0.014754 0.014338 0.013914 0.013916 0.014338 0.013916 0.01434 0.013914 0.013474 0.013476 0.013914 0.013476 0.013916 0.013474 0.013019 0.013021 0.013474 0.013021 0.013476 0.013019 0.012543 0.012546 0.013019 0.012546 0.013021 0.012543 0.012053 0.012056 0.012543 0.012056 0.012546 0.012053 0.011558 0.011561 0.012053 0.011561 0.012056 0.011558 0.011058 0.011061 0.011558 0.011061 0.011561 0.011058 0.010553 0.010557 0.011058 0.010557 0.011061 0.010553 0.010045 0.010049 0.010553 0.010049 0.010557 0.010045 0.009533 0.009539 0.010045 0.009539 0.010049 0.009533 0.00902 0.009026 0.009533 0.009026 0.009539 0.00902 0.008504 0.008511 0.00902 0.008511 0.009026 0.008504 0.007988 0.007995 0.008504 0.007995 0.008511 0.007988 0.007472 0.00748 0.007988 0.00748 0.007995 0.007472 0.006957 0.006966 0.007472 0.006966 0.00748 0.006957 0.006444 0.006454 0.006957 0.006454 0.006966 0.006444 0.005932 0.005943 0.006444 0.005943 0.006454 0.005932 0.005423 0.005434 0.005932 0.005434 0.005943 0.005423 0.004915 0.004928 0.005423 0.004928 0.005434 0.004915 0.004411 0.004425 0.004915 0.004425 0.004928 0.004411 0.003911 0.003925 0.004411 0.003925 0.004425 0.003911 0.003415 0.00343 0.003911 0.00343 0.003925 0.003415 0.002923 0.002939 0.003415 0.002939 0.00343 0.002923 0.002436 0.002453 0.002923 0.002453 0.002939 0.002234 0.002252 0.002734 0.002234 0.002734 0.002717 0.001756 0.001775 0.002252 0.001756 0.002252 0.002234 0.001283 0.001303 0.001775 0.001283 0.001775 0.001756 0.000816 0.000838 0.001303 0.000816 0.001303 0.001283 0.000354 0.000377 0.000838 0.000354 0.000838 0.000816 -0.000101 -7.7e-05 0.000377 -0.000101 0.000377 0.000354 -0.000551 -0.000525 -7.7e-05 -0.000551 -7.7e-05 -0.000101 -0.000994 -0.000966 -0.000525 -0.000994 -0.000525 -0.000551 -0.00143 -0.001401 -0.000966 -0.00143 -0.000966 -0.000994 -0.00186 -0.001829 -0.001401 -0.00186 -0.001401 -0.00143 -0.002283 -0.002251 -0.001829 -0.002283 -0.001829 -0.00186 -0.002699 -0.002666 -0.002251 -0.002699 -0.002251 -0.002283 -0.00311 -0.003075 -0.002666 -0.00311 -0.002666 -0.002699 -0.003515 -0.003478 -0.003075 -0.003515 -0.003075 -0.00311 -0.003916 -0.003878 -0.003478 -0.003916 -0.003478 -0.003515 -0.004311 -0.004272 -0.003878 -0.004311 -0.003878 -0.003916 -0.0047 -0.004659 -0.004272 -0.0047 -0.004272 -0.004311 -0.005081 -0.005039 -0.004659 -0.005081 -0.004659 -0.0047 -0.005455126697529332 -0.005410347249374427 -0.005039 -0.005455126697529332 -0.005039 -0.005081 -0.005820222263242322 -0.005775846672300374 -0.005410347249374427 -0.005820222263242322 -0.005410347249374427 -0.005455126697529332 -0.006183359838040084 -0.006139744484913595 -0.005775846672300374 -0.006183359838040084 -0.005775846672300374 -0.005820222263242322 -0.006544806155068686 -0.006497268083929074 -0.006139744484913595 -0.006544806155068686 -0.006139744484913595 -0.006183359838040084 -0.006896746177624399 -0.006847968011147037 -0.006497268083929074 -0.006896746177624399 -0.006497268083929074 -0.006544806155068686 -0.007241948869428337 -0.0071919005449655755 -0.006847968011147037 -0.007241948869428337 -0.006847968011147037 -0.006896746177624399 -0.007581718373559153 -0.007528594965324963 -0.0071919005449655755 -0.007581718373559153 -0.0071919005449655755 -0.007241948869428337 -0.007913262826539518 -0.007860019027107444 -0.007528594965324963 -0.007913262826539518 -0.007528594965324963 -0.007581718373559153 -0.008239677263956306 -0.00818396721595542 -0.007860019027107444 -0.008239677263956306 -0.007860019027107444 -0.007913262826539518 -0.008559946045546983 -0.008503371737683165 -0.00818396721595542 -0.008559946045546983 -0.00818396721595542 -0.008239677263956306 -0.008878438470153472 -0.00882202271208285 -0.008503371737683165 -0.008878438470153472 -0.008503371737683165 -0.008559946045546983 -0.009194465970122755 -0.009138464040896582 -0.00882202271208285 -0.009194465970122755 -0.00882202271208285 -0.008878438470153472 -0.009508023646594532 -0.00945129213899364 -0.009138464040896582 -0.009508023646594532 -0.009138464040896582 -0.009194465970122755 -0.00981775058901293 -0.00975929924749099 -0.00945129213899364 -0.00981775058901293 -0.00945129213899364 -0.009508023646594532 -0.010121148552682955 -0.010062332372053237 -0.00975929924749099 -0.010121148552682955 -0.00975929924749099 -0.00981775058901293 -0.010421563348486857 -0.010361203515515805 -0.010062332372053237 -0.010421563348486857 -0.010062332372053237 -0.010121148552682955 -0.010717563755812221 -0.010656345229527445 -0.010361203515515805 -0.010717563755812221 -0.010361203515515805 -0.010421563348486857 -0.011008135192863422 -0.010944267609367005 -0.010656345229527445 -0.011008135192863422 -0.010656345229527445 -0.010717563755812221 -0.011289927461433575 -0.011223625414040234 -0.010944267609367005 -0.011289927461433575 -0.010944267609367005 -0.011008135192863422 -0.01156365442686688 -0.011492635971966574 -0.011223625414040234 -0.01156365442686688 -0.011223625414040234 -0.011289927461433575 -0.011825491579138972 -0.011751214740476057 -0.011492635971966574 -0.011825491579138972 -0.011492635971966574 -0.01156365442686688 -0.01207785409943676 -0.011999128880251866 -0.011751214740476057 -0.01207785409943676 -0.011751214740476057 -0.011825491579138972 -0.012321506250297676 -0.012241722459763578 -0.011999128880251866 -0.012321506250297676 -0.011999128880251866 -0.01207785409943676 -0.012564168698236995 -0.012486073176353266 -0.012241722459763578 -0.012564168698236995 -0.012241722459763578 -0.012321506250297676 -0.012809185676658707 -0.012733265180799348 -0.012486073176353266 -0.012809185676658707 -0.012486073176353266 -0.012564168698236995 -0.013058028264265048 -0.012988324546380778 -0.012733265180799348 -0.013058028264265048 -0.012733265180799348 -0.012809185676658707 -0.013318070331196275 -0.013254133971123433 -0.012988324546380778 -0.013318070331196275 -0.012988324546380778 -0.013058028264265048 -0.013586519291630688 -0.013524811707728695 -0.013254133971123433 -0.013586519291630688 -0.013254133971123433 -0.013318070331196275 -0.01385625448529539 -0.013795489591833058 -0.013524811707728695 -0.01385625448529539 -0.013524811707728695 -0.013586519291630688 -0.014121109300095297 -0.014056685761426132 -0.013795489591833058 -0.014121109300095297 -0.013795489591833058 -0.01385625448529539 -0.014375195411675442 -0.014308802837690352 -0.014056685761426132 -0.014375195411675442 -0.014056685761426132 -0.014121109300095297 -0.014623502339441478 -0.01455466308159936 -0.014308802837690352 -0.014623502339441478 -0.014308802837690352 -0.014375195411675442 -0.014861939838553148 -0.01478701880420565 -0.01455466308159936 -0.014861939838553148 -0.01455466308159936 -0.014623502339441478 -0.015082743547007105 -0.014999148572005797 -0.01478701880420565 -0.015082743547007105 -0.01478701880420565 -0.014861939838553148 -0.015286283262690046 -0.015193598877081927 -0.014999148572005797 -0.015286283262690046 -0.014999148572005797 -0.015082743547007105 -0.015471229143529058 -0.015370782682409361 -0.015193598877081927 -0.015471229143529058 -0.015193598877081927 -0.015286283262690046 -0.015650236453457315 -0.01555538585309317 -0.015370782682409361 -0.015650236453457315 -0.015370782682409361 -0.015471229143529058 -0.015853072726941236 -0.01577811105034924 -0.01555538585309317 -0.015853072726941236 -0.01555538585309317 -0.015650236453457315 -0.016105126523980638 -0.016057671070251626 -0.01577811105034924 -0.016105126523980638 -0.01577811105034924 -0.015853072726941236 -0.016411705030726705 -0.01639013959195816 -0.016057671070251626 -0.016411705030726705 -0.016057671070251626 -0.016105126523980638 -0.016763037224135923 -0.016762798166509316 -0.01639013959195816 -0.016763037224135923 -0.01639013959195816 -0.016411705030726705 -0.017136703680314322 -0.017139821755473444 -0.016762798166509316 -0.017136703680314322 -0.016762798166509316 -0.016763037224135923 -0.01748582854518783 -0.017483784043905975 -0.017139821755473444 -0.01748582854518783 -0.017139821755473444 -0.017136703680314322 -0.017824685463703416 -0.017815114276441064 -0.017483784043905975 -0.017824685463703416 -0.017483784043905975 -0.01748582854518783 -0.018035451973156244 -0.017932178672450113 -0.017815114276441064 -0.018035451973156244 -0.017815114276441064 -0.017824685463703416 -0.018086840685011152 -0.017947570961912636 -0.017932178672450113 -0.018086840685011152 -0.017932178672450113 -0.018035451973156244 -0.018007853531088646 -0.017759826679932575 -0.017947570961912636 -0.018007853531088646 -0.017947570961912636 -0.018086840685011152 -0.017810508619647492 -0.017532438852912995 -0.017759826679932575 -0.017810508619647492 -0.017759826679932575 -0.018007853531088646 -0.01761181629630624 -0.01738235704813056 -0.017532438852912995 -0.01761181629630624 -0.017532438852912995 -0.017810508619647492 -0.017546172146457692 -0.017383033917537826 -0.01738235704813056 -0.017546172146457692 -0.01738235704813056 -0.01761181629630624 -0.01756163307487089 -0.017420016285058782 -0.017383033917537826 -0.01756163307487089 -0.017383033917537826 -0.017546172146457692 -0.017623456803598978 -0.017534449526793647 -0.017420016285058782 -0.017623456803598978 -0.017420016285058782 -0.01756163307487089 -0.017866222689153295 -0.01792441810092786 -0.017534449526793647 -0.017866222689153295 -0.017534449526793647 -0.017623456803598978 -0.01833490972772694 -0.018414704666154365 -0.01792441810092786 -0.01833490972772694 -0.01792441810092786 -0.017866222689153295 -0.01876261318335138 -0.018789268301148063 -0.018414704666154365 -0.01876261318335138 -0.018414704666154365 -0.01833490972772694 -0.019014273546157166 -0.018957693309479714 -0.018789268301148063 -0.019014273546157166 -0.018789268301148063 -0.01876261318335138 -0.018808197162662507 -0.01833633844696425 -0.018957693309479714 -0.018808197162662507 -0.018957693309479714 -0.019014273546157166 -0.01793060741837046 -0.01759264608487204 -0.01833633844696425 -0.01793060741837046 -0.01833633844696425 -0.018808197162662507 -0.017502681897700163 -0.01738761741551823 -0.01759264608487204 -0.017502681897700163 -0.01759264608487204 -0.01793060741837046 -0.01744115876173569 -0.01732457823341984 -0.01738761741551823 -0.01744115876173569 -0.01738761741551823 -0.017502681897700163 -0.01736408534418518 -0.017200821162535247 -0.01732457823341984 -0.01736408534418518 -0.01732457823341984 -0.01744115876173569 -0.018259221424285647 -0.01811502975940947 -0.017200821162535247 -0.018259221424285647 -0.017200821162535247 -0.01736408534418518 -0.018267622498616944 -0.017374160466940732 -0.01811502975940947 -0.018267622498616944 -0.01811502975940947 -0.018259221424285647 -0.017550343389781745 -0.017345291373352115 -0.017374160466940732 -0.017550343389781745 -0.017374160466940732 -0.018267622498616944 -0.017238744173993754 -0.0170081539873804 -0.017345291373352115 -0.017238744173993754 -0.017345291373352115 -0.017550343389781745 -0.01719627149561271 -0.017016822626636813 -0.0170081539873804 -0.01719627149561271 -0.0170081539873804 -0.017238744173993754 -0.017263606911993513 -0.0171333512737847 -0.017016822626636813 -0.017263606911993513 -0.017016822626636813 -0.01719627149561271 -0.017415002939253094 -0.017292 -0.0171333512737847 -0.017415002939253094 -0.0171333512737847 -0.017263606911993513 -0.017574 -0.017453 -0.017292 -0.017574 -0.017292 -0.017415002939253094 -0.017735 -0.017617 -0.017453 -0.017735 -0.017453 -0.017574 -0.017899 -0.017784 -0.017617 -0.017899 -0.017617 -0.017735 -0.018065 -0.017951 -0.017784 -0.018065 -0.017784 -0.017899 -0.018232 -0.018121 -0.017951 -0.018232 -0.017951 -0.018065 -0.018401 -0.018293 -0.018121 -0.018401 -0.018121 -0.018232 -0.018571 -0.018465979513335264 -0.018293 -0.018571 -0.018293 -0.018401 -0.01874267283070796 -0.018634303390947706 -0.018465979513335264 -0.01874267283070796 -0.018465979513335264 -0.018571 -0.01885628230830541 -0.01871538728894693 -0.018634303390947706 -0.01885628230830541 -0.018634303390947706 -0.01874267283070796 -0.018898430650390305 -0.01864780100194925 -0.01871538728894693 -0.018898430650390305 -0.01871538728894693 -0.01885628230830541 -0.01866761535981253 -0.018489492879023354 -0.01864780100194925 -0.01866761535981253 -0.01864780100194925 -0.018898430650390305 -0.018707499951261874 -0.018789995064420403 -0.018489492879023354 -0.018707499951261874 -0.018489492879023354 -0.01866761535981253 -0.019373167905026186 -0.019973961030629803 -0.018789995064420403 -0.019373167905026186 -0.018789995064420403 -0.018707499951261874 -0.021136972932945027 -0.02204049571868039 -0.019973961030629803 -0.021136972932945027 -0.019973961030629803 -0.019373167905026186 -0.023121578269660503 -0.02371153663953877 -0.02204049571868039 -0.023121578269660503 -0.02204049571868039 -0.021136972932945027 -0.024198676872694752 -0.0242775186410655 -0.02371153663953877 -0.024198676872694752 -0.02371153663953877 -0.023121578269660503 -0.024233219157096215 -0.024020809108736395 -0.0242775186410655 -0.024233219157096215 -0.0242775186410655 -0.024198676872694752 -0.023731681369574945 -0.023495627575622055 -0.024020809108736395 -0.023731681369574945 -0.024020809108736395 -0.024233219157096215 -0.023175326262215683 -0.023128732172386448 -0.023495627575622055 -0.023175326262215683 -0.023495627575622055 -0.023731681369574945 -0.02384982804435419 -0.023983984724131328 -0.023128732172386448 -0.02384982804435419 -0.023128732172386448 -0.023175326262215683 -0.023872993285523798 -0.02314887140697151 -0.023983984724131328 -0.023872993285523798 -0.023983984724131328 -0.02384982804435419 -0.0230221028231992 -0.023431785940526653 -0.02314887140697151 -0.0230221028231992 -0.02314887140697151 -0.023872993285523798 -0.023465788931847635 -0.02370929544185462 -0.023431785940526653 -0.023465788931847635 -0.023431785940526653 -0.0230221028231992 -0.023504243325829538 -0.023175955196401355 -0.02370929544185462 -0.023504243325829538 -0.02370929544185462 -0.023465788931847635 -0.023166329584416896 -0.02297852074644638 -0.023175955196401355 -0.023166329584416896 -0.023175955196401355 -0.023504243325829538 -0.02314011604333073 -0.022875471812675942 -0.02297852074644638 -0.02314011604333073 -0.02297852074644638 -0.023166329584416896 -0.022939311277467293 -0.02276676583744234 -0.022875471812675942 -0.022939311277467293 -0.022875471812675942 -0.02314011604333073 -0.022760758856471656 -0.0226246597828944 -0.02276676583744234 -0.022760758856471656 -0.02276676583744234 -0.022939311277467293 -0.022646286328779297 -0.022472601288677705 -0.0226246597828944 -0.022646286328779297 -0.0226246597828944 -0.022760758856471656 -0.022370380667371976 -0.022306296080983286 -0.022472601288677705 -0.022370380667371976 -0.022472601288677705 -0.022646286328779297 -0.022324888518378872 -0.022218755162913932 -0.022306296080983286 -0.022324888518378872 -0.022306296080983286 -0.022370380667371976 -0.022195008675320635 -0.022108177876915748 -0.022218755162913932 -0.022195008675320635 -0.022218755162913932 -0.022324888518378872 -0.022086343524459106 -0.021986570863349007 -0.022108177876915748 -0.022086343524459106 -0.022108177876915748 -0.022195008675320635 -0.02198126072177955 -0.02188888784241844 -0.021986570863349007 -0.02198126072177955 -0.021986570863349007 -0.022086343524459106 -0.021902588832604777 -0.02181120767501995 -0.02188888784241844 -0.021902588832604777 -0.02188888784241844 -0.02198126072177955 -0.02183251095107434 -0.021748835422533735 -0.02181120767501995 -0.02183251095107434 -0.02181120767501995 -0.021902588832604777 -0.02178395303851314 -0.021712462221175347 -0.021748835422533735 -0.02178395303851314 -0.021748835422533735 -0.02183251095107434 -0.02176137287922131 -0.021698646210495894 -0.021712462221175347 -0.02176137287922131 -0.021712462221175347 -0.02178395303851314 -0.021750121303486213 -0.021690086262917713 -0.021698646210495894 -0.021750121303486213 -0.021698646210495894 -0.02176137287922131 -0.021740648853202572 -0.02168523982925788 -0.021690086262917713 -0.021740648853202572 -0.021690086262917713 -0.021750121303486213 -0.021742207763012396 -0.021696135006179576 -0.02168523982925788 -0.021742207763012396 -0.02168523982925788 -0.021740648853202572 -0.021758803087970777 -0.021718323316938837 -0.021696135006179576 -0.021758803087970777 -0.021696135006179576 -0.021742207763012396 -0.02178347781847786 -0.021748186506693967 -0.021718323316938837 -0.02178347781847786 -0.021718323316938837 -0.021758803087970777 -0.021815408820071325 -0.021788633872242624 -0.021748186506693967 -0.021815408820071325 -0.021748186506693967 -0.02178347781847786 -0.02185709916295781 -0.021836418081116207 -0.021788633872242624 -0.02185709916295781 -0.021788633872242624 -0.021815408820071325 -0.021897987620109204 -0.02188072297296795 -0.021836418081116207 -0.021897987620109204 -0.021836418081116207 -0.02185709916295781 -0.021929482717414725 -0.021916135396901397 -0.02188072297296795 -0.021929482717414725 -0.02188072297296795 -0.021897987620109204 -0.02194988689128038 -0.021940008521110877 -0.021916135396901397 -0.02194988689128038 -0.021916135396901397 -0.021929482717414725 -0.021959540659182007 -0.021954192711110387 -0.021940008521110877 -0.021959540659182007 -0.021940008521110877 -0.02194988689128038 -0.021957964732172822 -0.021958661655738166 -0.021954192711110387 -0.021957964732172822 -0.021954192711110387 -0.021959540659182007 -0.02194538660844869 -0.021950679749028628 -0.021958661655738166 -0.02194538660844869 -0.021958661655738166 -0.021957964732172822 -0.021921117517928003 -0.021930767542071652 -0.021950679749028628 -0.021921117517928003 -0.021950679749028628 -0.02194538660844869 -0.021887544808767135 -0.021902121696078726 -0.021930767542071652 -0.021887544808767135 -0.021930767542071652 -0.021921117517928003 -0.02184738971315784 -0.021866147600689872 -0.021902121696078726 -0.02184738971315784 -0.021902121696078726 -0.021887544808767135 -0.02180104344243217 -0.021824871157942616 -0.021866147600689872 -0.02180104344243217 -0.021866147600689872 -0.02184738971315784 -0.02175444982821433 -0.021783765821079708 -0.021824871157942616 -0.02175444982821433 -0.021824871157942616 -0.02180104344243217 -0.021712470118873572 -0.021748735845277794 -0.021783765821079708 -0.021712470118873572 -0.021783765821079708 -0.02175444982821433 -0.02168223190316578 -0.021727575484829162 -0.021748735845277794 -0.02168223190316578 -0.021748735845277794 -0.021712470118873572 -0.02166588446864897 -0.021714671825720903 -0.021727575484829162 -0.02166588446864897 -0.021727575484829162 -0.02168223190316578 -0.021651851603357468 -0.02170325013501348 -0.021714671825720903 -0.021651851603357468 -0.021714671825720903 -0.02166588446864897 -0.02164261724138431 -0.021699169032992932 -0.02170325013501348 -0.02164261724138431 -0.02170325013501348 -0.021651851603357468 -0.02164061489481222 -0.021697101079591562 -0.021699169032992932 -0.02164061489481222 -0.021699169032992932 -0.02164261724138431 -0.02163803128299703 -0.021697383135747775 -0.021697101079591562 -0.02163803128299703 -0.021697101079591562 -0.02164061489481222 -0.02164696640777349 -0.021716147566857455 -0.021697383135747775 -0.02164696640777349 -0.021697383135747775 -0.02163803128299703 -0.021674736867657907 -0.02174781279579817 -0.021716147566857455 -0.021674736867657907 -0.021716147566857455 -0.02164696640777349 -0.02170188131546149 -0.02177344656690912 -0.02174781279579817 -0.02170188131546149 -0.02174781279579817 -0.021674736867657907 -0.021715348415850197 -0.021785045148044604 -0.02177344656690912 -0.021715348415850197 -0.02177344656690912 -0.02170188131546149 -0.021716685641630824 -0.021799606378223108 -0.021785045148044604 -0.021716685641630824 -0.021785045148044604 -0.021715348415850197 -0.021738985770385185 -0.0218455754448047 -0.021799606378223108 -0.021738985770385185 -0.021799606378223108 -0.021716685641630824 -0.021810629017604725 -0.021973122414330228 -0.0218455754448047 -0.021810629017604725 -0.0218455754448047 -0.021738985770385185 -0.021913078854456234 -0.022104272653194836 -0.021973122414330228 -0.021913078854456234 -0.021973122414330228 -0.021810629017604725 -0.022326393230868706 -0.022445489603765377 -0.022104272653194836 -0.022326393230868706 -0.022104272653194836 -0.021913078854456234 -0.02202294562409171 -0.02147583890229754 -0.022445489603765377 -0.02202294562409171 -0.022445489603765377 -0.022326393230868706 -0.02010690529753867 -0.01998108006892607 -0.02147583890229754 -0.02010690529753867 -0.02147583890229754 -0.02202294562409171 -0.019958046162840647 -0.020807672515246758 -0.01998108006892607 -0.019958046162840647 -0.01998108006892607 -0.02010690529753867 -0.020601178428173564 -0.020309432211771762 -0.020807672515246758 -0.020601178428173564 -0.020807672515246758 -0.019958046162840647 -0.019929993936135343 -0.019993178133581983 -0.020309432211771762 -0.019929993936135343 -0.020309432211771762 -0.020601178428173564 -0.020160431315892686 -0.020771158330380547 -0.019993178133581983 -0.020160431315892686 -0.019993178133581983 -0.019929993936135343 -0.0231590543069914 -0.02327268101449612 -0.020771158330380547 -0.0231590543069914 -0.020771158330380547 -0.020160431315892686 -0.02331975316061112 -0.021370459795580582 -0.02327268101449612 -0.02331975316061112 -0.02327268101449612 -0.0231590543069914 -0.02198143821995947 -0.022740310396785538 -0.021370459795580582 -0.02198143821995947 -0.021370459795580582 -0.02331975316061112 -0.02344334495540221 -0.023943584045063245 -0.022740310396785538 -0.02344334495540221 -0.022740310396785538 -0.02198143821995947 -0.024322342514090677 -0.024307038411281404 -0.023943584045063245 -0.024322342514090677 -0.023943584045063245 -0.02344334495540221 -0.02426265716928075 -0.024122242032900188 -0.024307038411281404 -0.02426265716928075 -0.024307038411281404 -0.024322342514090677 -0.023638309396653887 -0.022966229595897027 -0.024122242032900188 -0.023638309396653887 -0.024122242032900188 -0.02426265716928075 -0.021826553484569414 -0.02078439791721341 -0.022966229595897027 -0.021826553484569414 -0.022966229595897027 -0.023638309396653887 -0.019560049186983713 -0.01900947916295852 -0.02078439791721341 -0.019560049186983713 -0.02078439791721341 -0.021826553484569414 -0.01855494800640062 -0.01858550749521455 -0.01900947916295852 -0.01855494800640062 -0.01900947916295852 -0.019560049186983713 -0.0184252225301631 -0.018630363873887754 -0.01858550749521455 -0.0184252225301631 -0.01858550749521455 -0.01855494800640062 -0.018604509336826742 -0.018867422262369853 -0.018630363873887754 -0.018604509336826742 -0.018630363873887754 -0.0184252225301631 -0.018681716130029318 -0.018823192178676694 -0.018867422262369853 -0.018681716130029318 -0.018867422262369853 -0.018604509336826742 -0.018584840181529082 -0.01869199456122385 -0.018823192178676694 -0.018584840181529082 -0.018823192178676694 -0.018681716130029318 -0.01841 -0.018516 -0.01869199456122385 -0.01841 -0.01869199456122385 -0.018584840181529082 -0.018233 -0.018342 -0.018516 -0.018233 -0.018516 -0.01841 -0.01806 -0.01817 -0.018342 -0.01806 -0.018342 -0.018233 -0.017888 -0.018001 -0.01817 -0.017888 -0.01817 -0.01806 -0.017718 -0.017833 -0.018001 -0.017718 -0.018001 -0.017888 -0.017549 -0.017665 -0.017833 -0.017549 -0.017833 -0.017718 -0.01738 -0.017499 -0.017665 -0.01738 -0.017665 -0.017549 -0.017213 -0.017335 -0.017499 -0.017213 -0.017499 -0.01738 -0.017048 -0.017173049768856218 -0.017335 -0.017048 -0.017335 -0.017213 -0.016888346643833582 -0.017026789172332607 -0.017173049768856218 -0.016888346643833582 -0.017173049768856218 -0.017048 -0.016798076945201725 -0.017003656793257577 -0.017026789172332607 -0.016798076945201725 -0.017026789172332607 -0.016888346643833582 -0.016855045333396775 -0.017104506396555953 -0.017003656793257577 -0.016855045333396775 -0.017003656793257577 -0.016798076945201725 -0.017020533896046533 -0.017270339468063663 -0.017104506396555953 -0.017020533896046533 -0.017104506396555953 -0.016855045333396775 -0.01716816903898401 -0.017375834290167442 -0.017270339468063663 -0.01716816903898401 -0.017270339468063663 -0.017020533896046533 -0.017291872088204083 -0.01748811627569956 -0.017375834290167442 -0.017291872088204083 -0.017375834290167442 -0.01716816903898401 -0.017378693961519472 -0.017478395928302266 -0.01748811627569956 -0.017378693961519472 -0.01748811627569956 -0.017291872088204083 -0.017401767973008603 -0.017496168703134283 -0.017478395928302266 -0.017401767973008603 -0.017478395928302266 -0.017378693961519472 -0.01749621245995887 -0.017688970877979455 -0.017496168703134283 -0.01749621245995887 -0.017496168703134283 -0.017401767973008603 -0.018085903108793034 -0.018733238021867465 -0.017688970877979455 -0.018085903108793034 -0.017688970877979455 -0.01749621245995887 -0.019077518990595656 -0.019189676135621496 -0.018733238021867465 -0.019077518990595656 -0.018733238021867465 -0.018085903108793034 -0.018884043081363863 -0.018830928678926044 -0.019189676135621496 -0.018884043081363863 -0.019189676135621496 -0.019077518990595656 -0.018498869048775908 -0.018428387514320688 -0.018830928678926044 -0.018498869048775908 -0.018830928678926044 -0.018884043081363863 -0.018019592398610968 -0.018004337790432565 -0.018428387514320688 -0.018019592398610968 -0.018428387514320688 -0.018498869048775908 -0.017706034028587607 -0.017783860607369775 -0.018004337790432565 -0.017706034028587607 -0.018004337790432565 -0.018019592398610968 -0.017472642613454614 -0.017538910044532525 -0.017783860607369775 -0.017472642613454614 -0.017783860607369775 -0.017706034028587607 -0.017362131568956884 -0.01752377051932157 -0.017538910044532525 -0.017362131568956884 -0.017538910044532525 -0.017472642613454614 -0.01733664892404351 -0.01743862337567788 -0.01752377051932157 -0.01733664892404351 -0.01752377051932157 -0.017362131568956884 -0.017307456546579555 -0.017523138614558585 -0.01743862337567788 -0.017307456546579555 -0.01743862337567788 -0.01733664892404351 -0.017491224095208178 -0.01783476713818812 -0.017523138614558585 -0.017491224095208178 -0.017523138614558585 -0.017307456546579555 -0.01782337935391558 -0.01796936839811179 -0.01783476713818812 -0.01782337935391558 -0.01783476713818812 -0.017491224095208178 -0.01773379974392922 -0.017808393591108734 -0.01796936839811179 -0.01773379974392922 -0.01796936839811179 -0.01782337935391558 -0.01760660013384311 -0.01763581239074806 -0.017808393591108734 -0.01760660013384311 -0.017808393591108734 -0.01773379974392922 -0.017299773685918313 -0.017285315665717435 -0.01763581239074806 -0.017299773685918313 -0.01763581239074806 -0.01760660013384311 -0.016918981208975805 -0.01690536276947376 -0.017285