VARIABLES="X", "Y", "Z", "M"
ZONE T="SINGLE" NODES=12 ELEMENTS=4 DATAPACKING=BLOCK ZONETYPE=FETRIANGLE VARLOCATION=([4-4]=CELLCENTERED)
0.0 1.0 1.0 0.0 1.0 0.0 1.0 0.0 0.0 1.0 0.0 1.0
0.0 1.0 1.0 0.0 1.0 0.0 0.0 1.0 1.0 0.0 1.0 0.0
0.0 0.0 1.0 0.0 1.0 1.0 0.0 0.0 1.0 0.0 1.0 1.0
0 0 0 0
1 2 3
4 5 6
7 8 9
10 11 12
