VARIABLES="X", "Y", "Z", "M"
ZONE T="SINGLE"
NODES=3
ELEMENTS=1
DATAPACKING=BLOCK
ZONETYPE=FETRIANGLE
VARLOCATION=([4-4]=CELLCENTERED)
0.0 1.0 1.0
0.0 1.0 1.0
0.0 0.0 1.0
0
1 2 3
