VARIABLES="X", "Y", "Z", "M"
ZONE T="SINGLE"
NODES=14
ELEMENTS=16
DATAPACKING=BLOCK
ZONETYPE=FETRIANGLE
VARLOCATION=([4-4]=CELLCENTERED)
2.0 4.0 1.0 3.0 5.0 0.0 2.0 4.0 6.0 1.0 3.0 5.0 2.0 4.0
2.0 2.0 1.0 1.0 1.0 0.0 0.0 0.0 0.0 -1.0 -1.0 -1.0 -2.0 -2.0
0.0 0.0 0.0 0.0 0.0 0.0 0.0 0.0 0.0 0.0 0.0 0.0 0.0 0.0
0 0 0 0 0 0 0 0 0 0 0 0 0 0 0 0
1 4 3
1 2 4
2 5 4
3 7 6
3 4 7
4 8 7
4 5 8
5 9 8
6 7 10
7 11 10
7 8 11
8 12 11
8 9 12
10 11 13
11 14 13
11 12 14