#
TITLE=""
VARIABLES="X", "Y", "Z", "M", "Id"
ZONE T="ZONE 1"
NODES=2503
ELEMENTS=4991
DATAPACKING=BLOCK
ZONETYPE=FETRIANGLE
VARLOCATION=([4-5]=CELLCENTERED)
-3.410180000000000069e-03 -8.171915999999999902e-02 -3.054348000000000132e-02 -2.490159000000000122e-02 -1.840568000000000065e-02 1.906793999999999850e-02 6.041200000000000042e-03 -1.346902999999999989e-02 -3.439323999999999854e-02 -8.431415999999999911e-02 -4.223353999999999997e-02 -6.330839000000000605e-02 -7.690394999999999870e-02 -7.225391999999999926e-02 1.298132999999999926e-02 -3.785728000000000010e-02 4.868940000000000420e-03 -5.718054999999999666e-02 -4.520906999999999704e-02 -3.376148999999999817e-02 -5.024226999999999860e-02 -2.121694999999999831e-02 -5.647295000000000093e-02 -5.280205999999999789e-02 -4.996033999999999892e-02 -2.974875000000000089e-02 -3.543890000000000061e-03 4.930490000000000046e-03 -3.908818000000000015e-02 -5.690100000000000019e-02 -4.124487999999999766e-02 -2.647197999999999912e-02 -2.186696999999999946e-02 -3.699625000000000136e-02 -6.721659000000000661e-02 4.976006000000000179e-02 -4.918663999999999675e-02 -4.459037999999999891e-02 -4.368646999999999808e-02 -2.249195000000000014e-02 -6.517420000000000331e-03 3.769900000000000074e-04 3.402391999999999916e-02 -2.646789999999999907e-02 -1.753346999999999892e-02 -7.001259999999999602e-03 5.986230000000000370e-03 9.100719999999999643e-03 -3.545369999999999772e-02 -7.598320000000000074e-02 3.483843999999999830e-02 -5.265555000000000235e-02 -4.737894000000000133e-02 -3.893375000000000308e-02 -2.646893999999999983e-02 -2.236578999999999998e-02 -1.337343000000000039e-02 -1.219348999999999954e-02 -6.336399999999999845e-04 2.065679999999999860e-03 -2.274926999999999852e-02 -1.800208000000000017e-02 -7.803680000000000339e-03 -2.684380000000000099e-03 -6.387565000000000603e-02 3.243399999999999755e-02 -8.806456999999999480e-02 -4.150370999999999921e-02 -6.445700999999999514e-02 -3.430318999999999729e-02 -2.294939999999999827e-02 -1.435470999999999969e-02 1.377310000000000079e-03 3.628500000000000215e-03 8.072380000000000527e-03 -7.266588999999999687e-02 3.799277999999999683e-02 3.849725999999999843e-02 2.150350999999999999e-02 -7.648133000000000015e-02 -8.724041000000000434e-02 -4.371996000000000215e-02 -4.065219999999999945e-02 -4.668618000000000073e-02 -4.407174999999999981e-02 -3.814411000000000190e-02 -1.987577000000000094e-02 -1.691124999999999920e-02 -1.624919000000000016e-02 -1.044654000000000069e-02 -4.309089999999999795e-03 7.815269999999999162e-03 3.795508999999999689e-02 -7.900379000000000429e-02 -7.977898999999999408e-02 -5.912970000000000032e-02 -6.569178999999999991e-02 -3.195165999999999978e-02 -6.937258999999999787e-02 -4.522550000000000181e-02 -4.187910999999999717e-02 -3.061484000000000080e-02 -2.478759999999999991e-02 -2.158886000000000138e-02 -2.426399999999999944e-04 -8.090050999999999493e-02 -2.999620999999999885e-02 3.551539000000000085e-02 4.331555000000000127e-02 -6.393854000000000204e-02 -4.448943999999999815e-02 -3.897989999999999788e-02 -7.908772999999999498e-02 -4.624729999999999640e-03 -1.498549999999999969e-03 5.198170000000000221e-03 3.092000000000000212e-05 3.356830000000000230e-02 3.868629999999999985e-02 -3.438577999999999774e-02 -8.530829999999999663e-03 -4.402399999999999998e-04 -9.107872999999999664e-02 4.077548000000000283e-02 4.563687999999999773e-02 2.035885000000000125e-02 -1.416970000000000035e-02 -1.198758999999999936e-02 3.251449999999999913e-03 -1.239524000000000008e-02 1.381377999999999946e-02 -7.700431000000000636e-02 -2.800135999999999944e-02 -8.547999999999999609e-04 -3.805019999999999930e-02 -1.623134000000000035e-02 -2.537355000000000166e-02 -6.781858999999999804e-02 -4.308260000000000388e-03 -3.195889999999999842e-03 -6.429240000000000128e-03 4.231295999999999669e-02 4.851000999999999924e-02 5.041228999999999849e-02 -3.918558999999999931e-02 -3.444865999999999900e-02 -1.474603000000000025e-02 2.664520000000000083e-03 -1.399160999999999981e-02 1.965917000000000012e-02 -3.259716000000000002e-02 -2.151389999999999986e-03 -5.600138999999999811e-02 -5.470726000000000061e-02 -5.130794000000000327e-02 -4.197932000000000052e-02 -3.027248999999999912e-02 -1.138785999999999965e-02 6.954489999999999804e-03 4.301508999999999888e-02 4.063590000000000257e-02 4.618355999999999850e-02 3.755296000000000328e-02 -7.864073000000000591e-02 -6.199624000000000107e-02 -5.749980000000000022e-03 2.536899999999999919e-04 -2.054254999999999970e-02 4.315590000000000225e-03 -4.654958000000000012e-02 -1.742058000000000148e-02 -1.524218999999999921e-02 -1.028288999999999939e-02 -1.128899999999999983e-04 -3.630933000000000077e-02 -7.032579999999999387e-02 4.302310000000000162e-02 4.283110999999999863e-02 1.698159999999999947e-02 -4.212148999999999754e-02 1.632923000000000013e-02 -8.126416000000000195e-02 -3.225787000000000099e-02 -1.377494999999999935e-02 5.292960000000000199e-03 7.696249999999999966e-03 3.483060000000000062e-03 6.653250000000000310e-03 4.608657000000000031e-02 5.232728999999999853e-02 -6.189763000000000209e-02 -6.393470000000000056e-03 -3.521832999999999908e-02 -3.268987999999999755e-02 -2.924544000000000102e-02 -5.002450000000000299e-03 1.657395999999999869e-02 -8.938509999999999511e-02 4.571922999999999959e-02 5.453721000000000263e-02 -4.498945000000000027e-02 -4.243939999999999865e-03 -7.388008999999999549e-02 -7.403387000000000162e-02 5.040001000000000203e-02 -5.405689000000000327e-02 2.614810999999999871e-02 -1.073648999999999958e-02 -4.507884000000000196e-02 -3.834089999999999721e-02 -2.925557999999999978e-02 -4.731120999999999938e-02 -1.186602999999999963e-02 -6.373460000000000063e-03 -2.993529999999999889e-03 -2.578106000000000148e-02 -1.669255999999999865e-02 -8.412340999999999569e-02 -7.429407999999999845e-02 -9.429714999999999625e-02 -3.520709000000000338e-02 -4.949594000000000216e-02 -3.306416000000000216e-02 -7.315730000000000323e-03 2.184999999999999917e-05 4.193439999999999668e-03 -7.725608000000000475e-02 4.107326000000000032e-02 3.741871000000000086e-02 -5.511138000000000148e-02 -4.274022999999999711e-02 -6.853119000000000571e-02 -9.944019999999999596e-03 -3.247920000000000060e-03 1.341438000000000005e-02 -7.350444000000000422e-02 -7.447183000000000275e-02 -2.585130999999999887e-02 -3.402294000000000151e-02 -7.540584999999999649e-02 -3.665841000000000238e-02 -1.779547999999999894e-02 -1.137866000000000051e-02 -1.041499999999999972e-04 2.738140000000000018e-03 5.568120000000000187e-03 -6.189585999999999699e-02 -7.264695999999999654e-02 1.579973999999999962e-02 -1.170342000000000084e-02 -5.892216000000000120e-02 -5.312131999999999965e-02 -5.074573999999999752e-02 -4.740181999999999729e-02 -4.505561999999999762e-02 -3.951765000000000139e-02 -1.524556999999999995e-02 -1.455778999999999927e-02 -5.940599999999999874e-03 3.717654000000000097e-02 2.392969999999999906e-03 -9.364421000000000550e-02 -6.393980999999999970e-02 -4.537646000000000041e-02 -3.650546000000000346e-02 -3.324433999999999723e-02 -3.080064999999999886e-02 -2.057849999999999957e-03 8.184810000000000696e-03 -1.295337000000000051e-02 -7.808147000000000004e-02 -2.658092999999999914e-02 -8.247160000000000601e-02 -2.753848000000000060e-02 1.255639999999999925e-03 6.150830000000000360e-03 -6.243324000000000096e-02 -5.986716999999999733e-02 -5.523833999999999689e-02 -5.400039999999999701e-02 -5.002701999999999843e-02 -4.199611999999999790e-02 -3.935794000000000098e-02 -8.616147999999999862e-02 -8.672301000000000315e-02 -2.241370000000000168e-02 -1.699318000000000009e-02 -1.240601000000000030e-02 -7.444209999999999716e-03 -2.145199999999999885e-03 -7.571822000000000275e-02 -7.705665999999999904e-02 -6.112104000000000148e-02 -3.753854000000000218e-02 -2.051669999999999796e-03 -6.499214999999999853e-02 -5.786195000000000227e-02 -4.568107999999999891e-02 -3.502264000000000072e-02 -2.998200999999999991e-02 -8.889226000000000072e-02 -1.913530000000000092e-02 -8.348970999999999476e-02 -7.011280000000000290e-02 -3.552632000000000012e-02 -7.083138999999999408e-02 4.513381000000000337e-02 -5.361670000000000325e-02 -4.900083999999999690e-02 -3.674488000000000060e-02 -1.087259999999999963e-02 -3.845020000000000208e-03 -4.902006999999999892e-02 -4.291439999999999838e-02 -5.768452999999999775e-02 -2.541173000000000043e-02 1.901223000000000149e-02 -5.949859999999999871e-02 -5.693104999999999694e-02 3.576559999999999895e-03 -1.668334999999999957e-02 -8.498079999999999870e-03 3.507820000000000035e-03 -2.839869999999999894e-02 -7.656583000000000139e-02 1.786942999999999865e-02 -4.034209999999999879e-02 5.910570000000000407e-03 -8.577754999999999408e-02 -5.037222999999999701e-02 -4.443413000000000224e-02 -4.205638999999999905e-02 -3.305845999999999785e-02 -2.924190999999999943e-02 -6.896410000000000387e-03 -6.621059999999999793e-03 -1.243909999999999981e-03 9.407600000000000337e-03 4.019480999999999749e-02 -8.622712999999999905e-02 -8.949548999999999699e-02 -6.713215999999999628e-02 -5.293563999999999908e-02 -3.674490999999999868e-02 -1.362611000000000031e-02 2.333713000000000107e-02 -3.705379000000000311e-02 -7.369668999999999526e-02 -6.559238000000000568e-02 -5.899738000000000204e-02 -3.323891000000000345e-02 -3.183499000000000051e-02 -2.002216999999999886e-02 -1.121382999999999928e-02 3.910844000000000126e-02 2.867569999999999841e-02 -6.894021000000000177e-02 -6.261511000000000160e-02 3.044455999999999898e-02 -1.524109000000000054e-02 -5.622170000000000119e-03 4.798990000000000374e-03 -6.828239999999999310e-02 -5.562373000000000317e-02 -5.190103000000000077e-02 -4.880903000000000325e-02 -4.541155999999999665e-02 -4.451454999999999995e-02 -3.943031999999999787e-02 -3.564223999999999865e-02 -1.224599999999999897e-04 9.510460000000000094e-03 2.144166000000000127e-02 -8.983029999999999488e-03 -7.301905000000000201e-02 -6.476042999999999383e-02 -6.936850999999999434e-02 -6.011713999999999947e-02 -2.924169000000000074e-02 -2.656143000000000046e-02 -1.439403000000000037e-02 -8.869159999999999197e-03 -1.218869999999999936e-03 4.047900000000000109e-03 -4.601939999999999677e-03 -7.843645999999999952e-02 1.077461000000000044e-02 -5.662372999999999712e-02 -3.629886999999999697e-02 -2.437993000000000104e-02 1.091549999999999986e-02 -5.862270000000000154e-03 1.697345000000000104e-02 -6.723197999999999674e-02 -5.499421000000000170e-02 -4.861798999999999982e-02 -5.536900000000000155e-02 -9.424354999999999538e-02 1.324298999999999962e-02 2.063929000000000111e-02 7.342969999999999879e-03 -1.349386999999999982e-02 -2.011063999999999907e-02 -6.943844999999999879e-02 -6.402805000000000302e-02 -5.199634999999999674e-02 -4.399088000000000304e-02 -3.973825000000000274e-02 -3.593149000000000343e-02 -3.086759999999999851e-02 -2.834207000000000046e-02 -2.562257999999999897e-02 -8.523661999999999905e-02 7.193599999999999647e-03 9.650920000000000332e-03 1.348710000000000013e-02 7.738980000000000338e-03 8.090499999999999602e-04 -7.265256999999999965e-02 -5.600940000000000432e-03 -2.630371999999999919e-02 -4.759043000000000301e-02 -4.146082999999999713e-02 -3.358206999999999859e-02 -2.287024000000000001e-02 -2.236196999999999838e-02 -1.887051000000000006e-02 -7.143368999999999414e-02 -7.300115000000000076e-02 -6.846642999999999479e-02 -7.468381000000000325e-02 -6.495895999999999615e-02 -7.893169999999999353e-02 -7.411355000000000026e-02 -7.045693000000000095e-02 -5.905876000000000181e-02 -4.918733000000000133e-02 -2.915117999999999876e-02 -1.159972000000000086e-02 5.145040000000000030e-03 -5.149569999999999842e-02 -2.021821000000000035e-02 4.251590000000000404e-03 1.683279999999999846e-02 -2.566107999999999931e-02 -7.214194999999999636e-02 -6.498457000000000539e-02 -6.065248000000000167e-02 -5.530898000000000064e-02 -4.424324000000000312e-02 -1.551334000000000046e-02 -7.632319999999999730e-03 -7.804690000000000412e-03 9.716320000000000512e-03 3.030038999999999996e-02 -4.749691000000000329e-02 -3.897894999999999832e-02 -2.586930999999999953e-02 -1.805792999999999981e-02 -1.518003000000000061e-02 -3.898149999999999966e-03 2.682000000000000071e-05 1.197835000000000046e-02 1.500496999999999942e-02 2.648806000000000077e-02 -3.622563000000000172e-02 -2.112678000000000125e-02 -1.281980999999999919e-02 5.284790000000000147e-03 8.940369999999999567e-03 -5.183966999999999742e-02 -5.420136999999999872e-02 1.322625000000000016e-02 -6.938241000000000547e-02 -6.769103999999999399e-02 -6.378240000000000298e-02 -5.074938999999999839e-02 -9.393620000000000095e-03 1.176009999999999903e-03 9.802029999999999771e-03 2.013128999999999960e-02 -2.787280000000000053e-03 -5.499688999999999967e-02 -4.596673999999999899e-02 -4.232454000000000077e-02 -3.216124000000000066e-02 -3.077018000000000114e-02 -1.160861000000000011e-02 -2.942832000000000087e-02 -8.004356999999999445e-02 -4.979742999999999670e-02 -4.372385000000000160e-02 -5.798173999999999689e-02 -4.149118000000000250e-02 -2.492983000000000005e-02 -2.088169000000000136e-02 -7.551969999999999864e-03 3.766719999999999877e-03 -6.282962000000000269e-02 -5.919594999999999718e-02 -5.107907999999999893e-02 -7.394536999999999638e-02 -7.214624000000000037e-02 -1.940887000000000168e-02 -5.553045000000000203e-02 1.668845999999999871e-02 -5.227732999999999686e-02 -6.920138000000000678e-02 2.657920999999999895e-02 -2.357431000000000110e-02 -7.377510000000000318e-03 1.323466000000000052e-02 1.948735000000000051e-02 -6.395393000000000605e-02 -4.957947000000000048e-02 -4.332364999999999827e-02 -2.904719999999999872e-02 -1.734309999999999975e-03 -3.135812999999999795e-02 2.582200000000000207e-03 -5.680230000000000001e-02 -5.646433000000000008e-02 -5.096475000000000311e-02 -5.098040999999999684e-02 -2.564740999999999896e-02 -2.254211000000000062e-02 -1.761800999999999992e-02 -1.971175000000000010e-02 2.378007000000000037e-02 1.474429000000000017e-02 2.169135999999999981e-02 -6.406723999999999752e-02 2.031915000000000110e-02 -3.642499999999999905e-02 -1.498117000000000025e-02 -5.733533999999999853e-02 -5.417256000000000155e-02 2.262520999999999977e-02 2.881051999999999919e-02 -4.276416000000000245e-02 9.223189999999999167e-03 1.504820999999999936e-02 -6.375728999999999425e-02 -3.407042999999999877e-02 -8.219150000000000067e-02 -6.629941999999999780e-02 -1.551010000000000062e-02 1.892802000000000026e-02 2.582179999999999892e-02 2.726869999999999988e-02 -4.530134000000000244e-02 2.385576000000000016e-02 2.163266999999999968e-02 4.378536000000000233e-02 4.807478999999999919e-02 5.266309000000000268e-02 -5.272244999999999709e-02 -3.007160999999999862e-02 -3.450804999999999845e-02 1.062971000000000055e-02 1.674343999999999832e-02 2.882704999999999990e-02 -5.993710000000000010e-02 -3.675209000000000115e-02 -3.788538999999999796e-02 -2.204779000000000114e-02 -2.436462000000000003e-02 -4.488227999999999662e-02 2.699676000000000159e-02 4.773575000000000040e-02 5.170378999999999947e-02 -6.750435999999999936e-02 -1.625752000000000100e-02 -6.392630000000000534e-02 -4.166529000000000066e-02 -3.520323000000000202e-02 4.131876999999999772e-02 1.405522000000000021e-02 1.942121999999999946e-02 2.367798999999999945e-02 3.425812999999999775e-02 5.595734000000000125e-02 -3.993796000000000151e-02 -4.698879999999999724e-02 -2.770836999999999953e-02 1.920463000000000031e-02 2.188599999999999920e-02 3.128626999999999797e-02 4.666116000000000014e-02 5.182372999999999841e-02 -2.926488000000000006e-02 -6.870076999999999434e-02 -5.607005999999999796e-02 4.471785000000000343e-02 -4.180409000000000208e-02 -6.836934000000000067e-02 -6.411480999999999431e-02 -1.838313000000000100e-02 1.174539999999999959e-02 -5.937536000000000203e-02 5.909207999999999822e-02 4.354774000000000145e-02 -2.629178000000000071e-02 1.490477999999999942e-02 2.428620000000000084e-02 2.895261000000000015e-02 -4.950776999999999956e-02 4.082478999999999969e-02 1.777480000000000032e-02 3.357384000000000063e-02 3.638504000000000044e-02 -6.420501000000000680e-02 -6.542449999999999655e-02 5.080134000000000039e-02 5.667174999999999990e-02 -4.934993000000000019e-02 -6.976056999999999397e-02 1.953705999999999846e-02 2.701390999999999862e-02 5.767942999999999681e-02 -5.691654000000000158e-02 2.346927999999999861e-02 -5.829863999999999880e-02 6.459839999999999680e-03 1.040602000000000020e-02 2.318394999999999831e-02 3.304035999999999779e-02 -6.434821999999999764e-02 -5.703144000000000269e-02 5.445156000000000301e-02 -3.013439999999999869e-02 -3.707710000000000172e-02 -5.603276000000000090e-02 -6.767647000000000246e-02 9.991170000000000606e-03 1.452150999999999963e-02 3.005174000000000040e-02 3.751916999999999752e-02 5.394401000000000057e-02 5.911990000000000300e-02 -2.436639000000000166e-02 -1.325342000000000013e-02 3.921874000000000193e-02 -1.796897999999999898e-02 2.190239000000000075e-02 3.534174999999999817e-02 -6.214561999999999864e-02 5.682062000000000224e-02 -3.280004000000000253e-02 1.121214000000000065e-02 1.291958999999999989e-02 2.012695000000000109e-02 3.597175999999999846e-02 3.990694000000000186e-02 -6.670234999999999359e-02 -4.160143000000000174e-02 3.304457999999999701e-02 2.467209999999999889e-02 2.610865999999999881e-02 3.336394000000000165e-02 4.291579000000000227e-02 5.471495999999999998e-02 -1.653094000000000091e-02 -1.789160000000000056e-02 4.111812000000000106e-02 2.338677000000000117e-02 3.810290000000000205e-02 1.014523999999999981e-02 5.839240999999999876e-02 3.830204999999999721e-02 3.412644000000000094e-02 -3.135574000000000000e-02 -5.825951000000000046e-02 -6.681723000000000523e-02 -6.809004000000000445e-02 1.656830000000000108e-02 2.936286999999999925e-02 3.702717999999999982e-02 5.641273000000000121e-02 -6.129574000000000134e-02 8.387300000000000311e-03 1.180702999999999961e-02 2.974173000000000094e-02 3.629440999999999917e-02 3.989967999999999987e-02 -6.276313000000000031e-02 -1.581544000000000005e-02 -9.226898999999999518e-02 -9.496399999999999677e-04 -6.371292000000000622e-02 -6.109602000000000088e-02 2.099186999999999928e-02 2.565852999999999884e-02 3.297855999999999704e-02 4.215612999999999999e-02 -5.551686000000000121e-02 -4.080228999999999800e-02 -6.254649999999999620e-03 -1.098681999999999957e-02 -3.035142000000000048e-02 2.611091999999999927e-02 -6.559993999999999548e-02 2.881465999999999889e-02 1.526328000000000060e-02 2.898239999999999844e-02 4.487254000000000242e-02 -7.822523000000000670e-02 -4.609494000000000091e-02 -5.236902999999999697e-02 -2.159209999999999949e-02 1.717677000000000093e-02 2.268749999999999933e-02 3.547204000000000329e-02 -8.948084000000000593e-02 -5.321672999999999681e-02 -3.777678000000000286e-02 -9.054937999999999876e-02 -6.336658000000000568e-02 1.407426999999999984e-02 1.810979000000000061e-02 4.220994000000000135e-02 -5.211592999999999781e-02 2.906308999999999976e-02 -5.473146000000000261e-02 2.590363999999999861e-02 3.129876000000000186e-02 3.844617000000000173e-02 4.635166999999999760e-02 -4.765656000000000059e-02 -1.144742999999999976e-02 -3.664723999999999760e-02 -4.665352999999999861e-02 -4.556989000000000178e-02 4.143887999999999738e-02 -6.428741999999999790e-02 -6.112888999999999823e-02 -4.784353999999999690e-02 -4.953682999999999698e-02 -7.113537999999999806e-02 1.011387000000000050e-02 1.789744999999999878e-02 2.174084999999999906e-02 2.527159000000000003e-02 3.088503999999999902e-02 -6.244192999999999966e-02 -6.216506000000000115e-02 2.065726000000000021e-02 -6.360280000000000100e-02 1.442401999999999920e-02 2.877934000000000048e-02 4.445012999999999742e-02 4.554198999999999747e-02 -4.966580999999999774e-02 -2.917729000000000156e-02 -5.820312999999999876e-02 3.899704999999999838e-02 -5.472579999999999806e-02 1.318912000000000036e-02 -1.992630000000000096e-02 2.015312999999999827e-02 -5.585993999999999682e-02 1.804526000000000047e-02 -6.375712999999999520e-02 -1.852762000000000159e-02 2.873440000000000022e-02 4.141401000000000110e-02 2.441172999999999954e-02 2.092518000000000156e-02 3.044501000000000152e-02 3.303008999999999806e-02 3.697509000000000212e-02 -7.772146000000000610e-02 2.925000000000000169e-02 -5.307818000000000258e-02 -6.299058999999999908e-02 -6.539831999999999590e-02 3.337390999999999969e-02 3.841358999999999746e-02 -6.194593000000000321e-02 -2.287648000000000112e-02 4.376623000000000319e-02 3.929152999999999812e-02 1.093622999999999991e-02 2.410872000000000015e-02 3.675839000000000190e-02 -5.194163999999999726e-02 -3.158210999999999657e-02 7.640590000000000055e-03 1.677102000000000107e-02 3.440461000000000213e-02 3.614382000000000011e-02 4.125883000000000328e-02 2.476613999999999899e-02 -2.260159000000000126e-02 -1.289366999999999944e-02 -2.493915000000000021e-02 -4.846862999999999866e-02 1.253449000000000056e-02 2.587286000000000100e-02 3.275647000000000281e-02 -2.334361999999999895e-02 -9.259496999999999867e-02 -7.431483999999999313e-02 -9.249923000000000173e-02 -7.737826000000000426e-02 -9.290734000000000492e-02 2.842333999999999833e-02 3.525168000000000051e-02 1.576055999999999985e-02 3.878552999999999862e-02 -6.151121999999999840e-02 -6.814512000000000347e-02 -2.061670999999999990e-02 1.513719000000000002e-02 -5.071827000000000280e-02 3.016869000000000148e-02 -8.742650000000000421e-02 -6.001038999999999679e-02 -5.860330999999999874e-02 3.241165000000000018e-02 -7.591778000000000415e-02 1.859656999999999977e-02 1.720980000000000079e-02 4.432653999999999761e-02 3.833591000000000082e-02 2.219292000000000140e-02 1.963602000000000056e-02 2.368212000000000095e-02 4.669327999999999673e-02 2.162110999999999894e-02 1.663861000000000159e-02 -9.025397999999999754e-02 -9.059387000000000689e-02 -6.254168999999999701e-02 -1.109193999999999979e-02 -6.226312999999999986e-02 -4.227675999999999656e-02 4.329340999999999745e-02 4.377959000000000017e-02 2.169698999999999933e-02 -1.118369999999999954e-02 -6.237257000000000218e-02 -9.248930000000000692e-03 4.147739999999999760e-02 -8.126870999999999401e-02 4.957567999999999697e-02 5.298796000000000062e-02 2.197754000000000027e-02 1.850569999999999993e-02 -3.510049999999999976e-02 4.874913000000000163e-02 3.191290000000000099e-02 -1.422252000000000065e-02 -4.866364000000000106e-02 -9.583720000000000433e-03 5.280184999999999740e-02 5.143380000000000174e-02 2.391124000000000027e-02 2.456706000000000167e-02 2.035680999999999949e-02 -2.188241999999999965e-02 -5.383179999999999910e-02 5.411421000000000286e-02 5.673057000000000100e-02 4.594182000000000127e-02 -8.381776000000000504e-02 2.920777000000000095e-02 2.845492000000000160e-02 2.663725999999999941e-02 2.204011000000000164e-02 1.912008000000000110e-02 -1.578219999999999970e-02 -6.251416999999999391e-02 -6.234560000000000102e-02 4.559818000000000204e-02 -4.942260999999999876e-02 -8.276186000000000653e-02 -5.216621999999999926e-02 -6.361674000000000495e-02 -5.149269000000000068e-02 -6.151758000000000226e-02 5.652486999999999789e-02 5.525789999999999869e-02 5.031813000000000258e-02 -6.268195000000000017e-02 5.652014999999999817e-02 5.690797999999999690e-02 5.285415999999999725e-02 -3.892113999999999990e-02 2.974069999999999839e-02 -6.879618999999999318e-02 5.882601999999999970e-02 -2.616057000000000105e-02 -5.334196000000000076e-02 5.817739000000000243e-02 5.979813999999999963e-02 5.454987000000000030e-02 2.677546000000000093e-02 -8.696040000000000367e-03 -7.703956000000000692e-02 -6.306989000000000345e-02 3.570668999999999926e-02 3.260037999999999825e-02 2.973995999999999931e-02 5.923852999999999758e-02 5.742175000000000057e-02 2.906299000000000035e-02 -1.722440999999999903e-02 -8.591137999999999553e-02 6.059492999999999824e-02 5.953163999999999678e-02 5.730646999999999824e-02 3.882937999999999668e-02 3.066276999999999892e-02 -2.776206999999999980e-02 -8.819459000000000326e-02 6.077880000000000088e-02 3.591508000000000200e-02 2.425186000000000008e-02 -6.195438999999999807e-02 -9.055792999999999482e-02 -8.846922000000000119e-02 5.955801000000000150e-02 3.094043999999999961e-02 -9.357574999999999921e-02 -9.318982000000000654e-02 -9.229609999999999204e-03 -8.173945999999999990e-02 -3.699274999999999786e-02 6.009356999999999893e-02 5.983723999999999987e-02 4.070618000000000153e-02 3.474594000000000293e-02 -6.187966000000000300e-02 -7.653780999999999779e-02 3.811106999999999689e-02 3.190934000000000131e-02 -8.315935000000000688e-02 -8.705590000000000550e-02 -7.144833000000000434e-02 -8.563210999999999740e-02 6.072897000000000017e-02 3.990964999999999790e-02 3.498178999999999872e-02 -9.182202999999999893e-02 -6.242542000000000230e-02 -7.116894999999999472e-02 -5.036476000000000147e-02 -5.049265000000000003e-02 5.988667000000000296e-02 -6.140699000000000157e-02 2.499074000000000087e-02 -7.485274999999999568e-02 -6.222569000000000017e-02 -6.200193999999999844e-02 5.837457000000000062e-02 -3.612503999999999715e-02 2.921651000000000109e-02 -4.168170000000000208e-02 -7.422655000000000225e-02 -9.784569999999999379e-03 -8.957795000000000341e-02 -6.231193000000000148e-02 4.351477000000000123e-02 -4.843435000000000101e-02 -8.931316000000000255e-02 -7.423019000000000145e-02 3.737859999999999794e-02 2.632181000000000104e-02 -4.802362000000000297e-02 -9.201958000000000359e-02 -7.130551000000000250e-02 -6.205929000000000306e-02 -9.701529999999999876e-03 4.334214000000000122e-02 4.177245999999999737e-02 3.350540999999999936e-02 2.966500000000000040e-02 -2.946015999999999913e-02 -8.639644000000000490e-02 -5.491069999999999979e-02 4.420381000000000310e-02 4.326435000000000003e-02 1.309698999999999933e-02 -6.706921000000000410e-02 -9.082168000000000185e-02 4.562000000000000083e-02 -9.303980000000000583e-02 4.463559000000000276e-02 -1.124339000000000068e-02 4.551118999999999998e-02 4.625271999999999717e-02 4.028164000000000050e-02 4.321819999999999828e-02 -5.110826999999999731e-02 4.469298000000000021e-02 4.342254000000000252e-02 4.075136000000000036e-02 -8.561303000000000663e-02 4.072147000000000266e-02 3.553807999999999967e-02 -9.273650999999999422e-02 -6.227851999999999694e-02 4.496022000000000213e-02 3.781473999999999946e-02 3.386448999999999709e-02 -9.104428000000000520e-02 -7.400444999999999940e-02 -6.176865000000000133e-02 -4.974744999999999862e-02 4.106544000000000166e-02 -7.291635999999999951e-02 -9.094968999999999970e-02 4.287905000000000189e-02 -7.245548000000000266e-02 -7.586294000000000370e-02 -8.526981999999999617e-02 -7.702557000000000154e-02 4.628088000000000340e-02 4.210690999999999740e-02 3.652388000000000162e-02 -3.742021999999999710e-02 -8.514890999999999432e-02 -6.331330000000000291e-02 -6.159140999999999921e-02 4.591854000000000074e-02 4.463113999999999970e-02 -4.484286999999999995e-02 -6.412418000000000284e-02 -6.707029999999999936e-02 -6.479376000000000579e-02 -6.437102999999999575e-02 -7.038152999999999770e-02 -7.526926999999999923e-02 -1.627309000000000047e-02 -6.211615000000000192e-02 -5.601078999999999780e-02 -3.727791999999999911e-02 -7.415869999999999407e-02 -7.903996000000000632e-02 -7.250552999999999859e-02 -6.773817999999999506e-02 -7.534690000000000137e-03 -5.957562000000000274e-02 -7.738270999999999344e-02 -8.149666999999999328e-02 -7.222331999999999363e-02 -1.370850000000000020e-02 -4.346533999999999814e-02 -6.910365000000000257e-02 -7.374807999999999364e-02 -6.819240999999999497e-02 -6.005284999999999790e-02 -2.345948999999999951e-02 -7.277722000000000357e-02 -7.659557999999999645e-02 1.390640999999999926e-02 -8.636750999999999456e-02 -3.135885000000000061e-02 -4.910458999999999657e-02 -4.293063999999999908e-02 -6.532034999999999925e-02 -3.760648999999999936e-02 9.507840000000000041e-03 -1.797680000000000068e-03 3.623170000000000210e-03 -9.267469999999999875e-02 -6.573972000000000149e-02 -8.656194000000000388e-02 -7.073153000000000079e-02 -8.084070000000000492e-03 -4.428624999999999923e-02 -7.022225999999999468e-02 -1.521069000000000067e-02 -1.727075000000000138e-02 -8.356094999999999495e-02 -8.813028000000000528e-02 -8.839924000000000393e-02 -6.778054999999999497e-02 -6.586459999999999711e-03 -8.874617999999999396e-02 -7.720673000000000119e-02 -9.317648000000000597e-02 -2.350684999999999927e-02 -6.654664999999999886e-02 -6.913600000000000301e-02 5.718026999999999832e-02 -7.539086999999999872e-02 -3.182883999999999713e-02 -8.988879999999999440e-03 3.432588000000000306e-02 -8.141494999999999982e-02 -2.329882999999999954e-02 -6.164166000000000090e-02 -8.882645000000000124e-02 5.837313000000000224e-02 -4.304563000000000139e-02 3.083572000000000049e-02 -8.863126999999999811e-02 -9.171514000000000055e-02 -7.208378000000000008e-02 -6.954063000000000605e-02 6.007868999999999710e-02 -4.008106000000000169e-02 3.281992999999999716e-02 -7.282321999999999407e-02 -8.527020999999999906e-02 -7.605132000000000558e-02 -8.653772999999999327e-02 5.588847999999999733e-02 -5.464236000000000093e-02 3.672995999999999900e-02 3.150187000000000126e-02 -7.875155000000000349e-02 -8.940816000000000041e-02 -2.089113000000000081e-02 -7.086356000000000599e-02 -7.091975999999999836e-02 -3.077128999999999975e-02 -5.445417999999999786e-02 -1.553949999999999906e-03 2.913055000000000158e-02 2.572593999999999922e-02 -8.931896999999999753e-02 -7.542949999999999655e-02 -2.859601999999999977e-02 2.106977999999999976e-02 -9.224076000000000497e-02 2.409459999999999987e-03 -5.662761999999999657e-02 -5.726479999999999765e-02 -3.645207000000000308e-02 -7.410816000000000625e-02 5.153713000000000044e-02 -6.609603999999999480e-02 3.610200000000000214e-02 1.671521000000000118e-02 -8.076792000000000693e-02 -9.175759999999999472e-02 -8.682494000000000323e-02 -6.580809999999999438e-02 -7.821733999999999631e-02 -7.256706000000000267e-02 5.843995999999999913e-02 5.684755999999999837e-02 5.491938999999999849e-02 4.744690000000000019e-02 1.231935999999999969e-02 -7.979063999999999601e-02 -7.665521000000000140e-02 2.174732000000000054e-02 -7.526048999999999933e-02 -2.591960999999999918e-02 -6.798379000000000227e-02 1.683110999999999982e-02 5.401649000000000034e-02 5.052274999999999822e-02 -5.958244000000000040e-02 2.534350000000000144e-02 1.926274999999999862e-02 -9.075851999999999531e-02 -4.654848999999999792e-02 -2.410694999999999852e-02 8.6784400000000008